
     Program PWSCF v.7.4.1 starts on 16Mar2026 at 12:27:20 

     This program is part of the open-source Quantum ESPRESSO suite
     for quantum simulation of materials; please cite
         "P. Giannozzi et al., J. Phys.:Condens. Matter 21 395502 (2009);
         "P. Giannozzi et al., J. Phys.:Condens. Matter 29 465901 (2017);
         "P. Giannozzi et al., J. Chem. Phys. 152 154105 (2020);
          URL http://www.quantum-espresso.org", 
     in publications or presentations arising from this work. More details at
     http://www.quantum-espresso.org/quote

     Parallel version (MPI), running on     1 processors

     MPI processes distributed on     1 nodes
     73181 MiB available memory on the printing compute node when the environment starts
 
     Reading input from aiida.in

     Current dimensions of program PWSCF are:
     Max number of different atomic species (ntypx) = 10
     Max number of k-points (npk) =  40000
     Max angular momentum in pseudopotentials (lmaxx) =  4
     Message from routine set_cutoff:
     ecutrho < 4*ecutwfc, are you sure?
     Message from routine setup:
     using ibrav=0 with symmetry is DISCOURAGED, use correct ibrav instead
 
     Subspace diagonalization in iterative solution of the eigenvalue problem:
     a serial algorithm will be used

 
     G-vector sticks info
     --------------------
     sticks:   dense  smooth     PW     G-vecs:    dense   smooth      PW
     Sum         463     463    253                 6615     6615    2741
 
     Using Slab Decomposition
 


     bravais-lattice index     =            0
     lattice parameter (alat)  =       7.2565  a.u.
     unit-cell volume          =     270.1851 (a.u.)^3
     number of atoms/cell      =            2
     number of atomic types    =            1
     number of electrons       =         8.00
     number of Kohn-Sham states=            8
     kinetic-energy cutoff     =      60.0000  Ry
     charge density cutoff     =     128.0000  Ry
     scf convergence threshold =      4.0E-10
     mixing beta               =       0.4000
     number of iterations used =            8  plain     mixing
     Exchange-correlation= SLA  PW   NOGX NOGC
                           (   1   4   0   0   0   0   0)

     celldm(1)=   7.256471  celldm(2)=   0.000000  celldm(3)=   0.000000
     celldm(4)=   0.000000  celldm(5)=   0.000000  celldm(6)=   0.000000

     crystal axes: (cart. coord. in units of alat)
               a(1) = (  -0.707107   0.000000   0.707107 )  
               a(2) = (   0.000000   0.707107   0.707107 )  
               a(3) = (  -0.707107   0.707107   0.000000 )  

     reciprocal axes: (cart. coord. in units 2 pi/alat)
               b(1) = ( -0.707107 -0.707107  0.707107 )  
               b(2) = (  0.707107  0.707107  0.707107 )  
               b(3) = ( -0.707107  0.707107 -0.707107 )  


     PseudoPot. # 1 for Si read from file:
     ./pseudo/Si.upf
     MD5 check sum: 9e2d726316af3d4752eea8ab0afbb951
     Pseudo is Norm-conserving + core correction, Zval =  4.0
     Generated using ONCVPSP code by D. R. Hamann
     Using radial grid of 1510 points,  6 beta functions with: 
                l(1) =   0
                l(2) =   0
                l(3) =   1
                l(4) =   1
                l(5) =   2
                l(6) =   2

     atomic species   valence    mass     pseudopotential
     Si                4.00    28.08550     Si( 1.00)

     48 Sym. Ops., with inversion, found (24 have fractional translation)


                                    s                        frac. trans.

      isym =  1     identity                                     

 cryst.   s( 1) = (     1          0          0      )
                  (     0          1          0      )
                  (     0          0          1      )

 cart.    s( 1) = (  1.0000000  0.0000000  0.0000000 )
                  (  0.0000000  1.0000000  0.0000000 )
                  (  0.0000000  0.0000000  1.0000000 )


      isym =  2     180 deg rotation - cart. axis [0,0,1]        

 cryst.   s( 2) = (     0          1         -1      )
                  (     1          0         -1      )
                  (     0          0         -1      )

 cart.    s( 2) = ( -1.0000000  0.0000000  0.0000000 )
                  (  0.0000000 -1.0000000  0.0000000 )
                  (  0.0000000  0.0000000  1.0000000 )


      isym =  3     180 deg rotation - cart. axis [0,1,0]        

 cryst.   s( 3) = (    -1          0          0      )
                  (    -1          0          1      )
                  (    -1          1          0      )

 cart.    s( 3) = ( -1.0000000  0.0000000  0.0000000 )
                  (  0.0000000  1.0000000  0.0000000 )
                  (  0.0000000  0.0000000 -1.0000000 )


      isym =  4     180 deg rotation - cart. axis [1,0,0]        

 cryst.   s( 4) = (     0         -1          1      )
                  (     0         -1          0      )
                  (     1         -1          0      )

 cart.    s( 4) = (  1.0000000  0.0000000  0.0000000 )
                  (  0.0000000 -1.0000000  0.0000000 )
                  (  0.0000000  0.0000000 -1.0000000 )


      isym =  5     180 deg rotation - cart. axis [1,1,0]        

 cryst.   s( 5) = (     0         -1          0      )    f =( -0.2500000 )
                  (    -1          0          0      )       ( -0.2500000 )
                  (     0          0         -1      )       ( -0.2500000 )

 cart.    s( 5) = (  0.0000000  1.0000000  0.0000000 )    f =(  0.3535534 )
                  (  1.0000000  0.0000000  0.0000000 )       ( -0.3535534 )
                  (  0.0000000  0.0000000 -1.0000000 )       ( -0.3535534 )


      isym =  6     180 deg rotation - cart. axis [1,-1,0]       

 cryst.   s( 6) = (    -1          0          1      )    f =( -0.2500000 )
                  (     0         -1          1      )       ( -0.2500000 )
                  (     0          0          1      )       ( -0.2500000 )

 cart.    s( 6) = (  0.0000000 -1.0000000  0.0000000 )    f =(  0.3535534 )
                  ( -1.0000000  0.0000000  0.0000000 )       ( -0.3535534 )
                  (  0.0000000  0.0000000 -1.0000000 )       ( -0.3535534 )


      isym =  7      90 deg rotation - cart. axis [0,0,-1]       

 cryst.   s( 7) = (     0          1          0      )    f =( -0.2500000 )
                  (     0          1         -1      )       ( -0.2500000 )
                  (    -1          1          0      )       ( -0.2500000 )

 cart.    s( 7) = (  0.0000000  1.0000000  0.0000000 )    f =(  0.3535534 )
                  ( -1.0000000  0.0000000  0.0000000 )       ( -0.3535534 )
                  (  0.0000000  0.0000000  1.0000000 )       ( -0.3535534 )


      isym =  8      90 deg rotation - cart. axis [0,0,1]        

 cryst.   s( 8) = (     1          0         -1      )    f =( -0.2500000 )
                  (     1          0          0      )       ( -0.2500000 )
                  (     1         -1          0      )       ( -0.2500000 )

 cart.    s( 8) = (  0.0000000 -1.0000000  0.0000000 )    f =(  0.3535534 )
                  (  1.0000000  0.0000000  0.0000000 )       ( -0.3535534 )
                  (  0.0000000  0.0000000  1.0000000 )       ( -0.3535534 )


      isym =  9     180 deg rotation - cart. axis [1,0,1]        

 cryst.   s( 9) = (    -1          0          0      )    f =( -0.2500000 )
                  (     0          0         -1      )       ( -0.2500000 )
                  (     0         -1          0      )       ( -0.2500000 )

 cart.    s( 9) = (  0.0000000  0.0000000  1.0000000 )    f =(  0.3535534 )
                  (  0.0000000 -1.0000000  0.0000000 )       ( -0.3535534 )
                  (  1.0000000  0.0000000  0.0000000 )       ( -0.3535534 )


      isym = 10     180 deg rotation - cart. axis [-1,0,1]       

 cryst.   s(10) = (     1          0          0      )    f =( -0.2500000 )
                  (     1         -1          0      )       ( -0.2500000 )
                  (     1          0         -1      )       ( -0.2500000 )

 cart.    s(10) = (  0.0000000  0.0000000 -1.0000000 )    f =(  0.3535534 )
                  (  0.0000000 -1.0000000  0.0000000 )       ( -0.3535534 )
                  ( -1.0000000  0.0000000  0.0000000 )       ( -0.3535534 )


      isym = 11      90 deg rotation - cart. axis [0,1,0]        

 cryst.   s(11) = (     0          1         -1      )    f =( -0.2500000 )
                  (    -1          1          0      )       ( -0.2500000 )
                  (     0          1          0      )       ( -0.2500000 )

 cart.    s(11) = (  0.0000000  0.0000000  1.0000000 )    f =(  0.3535534 )
                  (  0.0000000  1.0000000  0.0000000 )       ( -0.3535534 )
                  ( -1.0000000  0.0000000  0.0000000 )       ( -0.3535534 )


      isym = 12      90 deg rotation - cart. axis [0,-1,0]       

 cryst.   s(12) = (     0         -1          1      )    f =( -0.2500000 )
                  (     0          0          1      )       ( -0.2500000 )
                  (    -1          0          1      )       ( -0.2500000 )

 cart.    s(12) = (  0.0000000  0.0000000 -1.0000000 )    f =(  0.3535534 )
                  (  0.0000000  1.0000000  0.0000000 )       ( -0.3535534 )
                  (  1.0000000  0.0000000  0.0000000 )       ( -0.3535534 )


      isym = 13     180 deg rotation - cart. axis [0,1,1]        

 cryst.   s(13) = (    -1          1          0      )    f =( -0.2500000 )
                  (     0          1          0      )       ( -0.2500000 )
                  (     0          1         -1      )       ( -0.2500000 )

 cart.    s(13) = ( -1.0000000  0.0000000  0.0000000 )    f =(  0.3535534 )
                  (  0.0000000  0.0000000  1.0000000 )       ( -0.3535534 )
                  (  0.0000000  1.0000000  0.0000000 )       ( -0.3535534 )


      isym = 14     180 deg rotation - cart. axis [0,1,-1]       

 cryst.   s(14) = (     0          0         -1      )    f =( -0.2500000 )
                  (     0         -1          0      )       ( -0.2500000 )
                  (    -1          0          0      )       ( -0.2500000 )

 cart.    s(14) = ( -1.0000000  0.0000000  0.0000000 )    f =(  0.3535534 )
                  (  0.0000000  0.0000000 -1.0000000 )       ( -0.3535534 )
                  (  0.0000000 -1.0000000  0.0000000 )       ( -0.3535534 )


      isym = 15      90 deg rotation - cart. axis [-1,0,0]       

 cryst.   s(15) = (     0          0          1      )    f =( -0.2500000 )
                  (    -1          0          1      )       ( -0.2500000 )
                  (     0         -1          1      )       ( -0.2500000 )

 cart.    s(15) = (  1.0000000  0.0000000  0.0000000 )    f =(  0.3535534 )
                  (  0.0000000  0.0000000  1.0000000 )       ( -0.3535534 )
                  (  0.0000000 -1.0000000  0.0000000 )       ( -0.3535534 )


      isym = 16      90 deg rotation - cart. axis [1,0,0]        

 cryst.   s(16) = (     1         -1          0      )    f =( -0.2500000 )
                  (     1          0         -1      )       ( -0.2500000 )
                  (     1          0          0      )       ( -0.2500000 )

 cart.    s(16) = (  1.0000000  0.0000000  0.0000000 )    f =(  0.3535534 )
                  (  0.0000000  0.0000000 -1.0000000 )       ( -0.3535534 )
                  (  0.0000000  1.0000000  0.0000000 )       ( -0.3535534 )


      isym = 17     120 deg rotation - cart. axis [-1,-1,-1]     

 cryst.   s(17) = (    -1          0          1      )
                  (    -1          1          0      )
                  (    -1          0          0      )

 cart.    s(17) = (  0.0000000  1.0000000  0.0000000 )
                  (  0.0000000  0.0000000  1.0000000 )
                  (  1.0000000  0.0000000  0.0000000 )


      isym = 18     120 deg rotation - cart. axis [-1,1,1]       

 cryst.   s(18) = (     0          1          0      )
                  (     0          0          1      )
                  (     1          0          0      )

 cart.    s(18) = (  0.0000000 -1.0000000  0.0000000 )
                  (  0.0000000  0.0000000  1.0000000 )
                  ( -1.0000000  0.0000000  0.0000000 )


      isym = 19     120 deg rotation - cart. axis [1,1,-1]       

 cryst.   s(19) = (     1          0         -1      )
                  (     0          0         -1      )
                  (     0          1         -1      )

 cart.    s(19) = (  0.0000000  1.0000000  0.0000000 )
                  (  0.0000000  0.0000000 -1.0000000 )
                  ( -1.0000000  0.0000000  0.0000000 )


      isym = 20     120 deg rotation - cart. axis [1,-1,1]       

 cryst.   s(20) = (     0         -1          0      )
                  (     1         -1          0      )
                  (     0         -1          1      )

 cart.    s(20) = (  0.0000000 -1.0000000  0.0000000 )
                  (  0.0000000  0.0000000 -1.0000000 )
                  (  1.0000000  0.0000000  0.0000000 )


      isym = 21     120 deg rotation - cart. axis [1,1,1]        

 cryst.   s(21) = (     0          0         -1      )
                  (     0          1         -1      )
                  (     1          0         -1      )

 cart.    s(21) = (  0.0000000  0.0000000  1.0000000 )
                  (  1.0000000  0.0000000  0.0000000 )
                  (  0.0000000  1.0000000  0.0000000 )


      isym = 22     120 deg rotation - cart. axis [-1,1,-1]      

 cryst.   s(22) = (    -1          1          0      )
                  (    -1          0          0      )
                  (    -1          0          1      )

 cart.    s(22) = (  0.0000000  0.0000000  1.0000000 )
                  ( -1.0000000  0.0000000  0.0000000 )
                  (  0.0000000 -1.0000000  0.0000000 )


      isym = 23     120 deg rotation - cart. axis [1,-1,-1]      

 cryst.   s(23) = (     0          0          1      )
                  (     1          0          0      )
                  (     0          1          0      )

 cart.    s(23) = (  0.0000000  0.0000000 -1.0000000 )
                  ( -1.0000000  0.0000000  0.0000000 )
                  (  0.0000000  1.0000000  0.0000000 )


      isym = 24     120 deg rotation - cart. axis [-1,-1,1]      

 cryst.   s(24) = (     1         -1          0      )
                  (     0         -1          1      )
                  (     0         -1          0      )

 cart.    s(24) = (  0.0000000  0.0000000 -1.0000000 )
                  (  1.0000000  0.0000000  0.0000000 )
                  (  0.0000000 -1.0000000  0.0000000 )


      isym = 25     inversion                                    

 cryst.   s(25) = (    -1          0          0      )    f =( -0.2500000 )
                  (     0         -1          0      )       ( -0.2500000 )
                  (     0          0         -1      )       ( -0.2500000 )

 cart.    s(25) = ( -1.0000000  0.0000000  0.0000000 )    f =(  0.3535534 )
                  (  0.0000000 -1.0000000  0.0000000 )       ( -0.3535534 )
                  (  0.0000000  0.0000000 -1.0000000 )       ( -0.3535534 )


      isym = 26     inv. 180 deg rotation - cart. axis [0,0,1]   

 cryst.   s(26) = (     0         -1          1      )    f =( -0.2500000 )
                  (    -1          0          1      )       ( -0.2500000 )
                  (     0          0          1      )       ( -0.2500000 )

 cart.    s(26) = (  1.0000000  0.0000000  0.0000000 )    f =(  0.3535534 )
                  (  0.0000000  1.0000000  0.0000000 )       ( -0.3535534 )
                  (  0.0000000  0.0000000 -1.0000000 )       ( -0.3535534 )


      isym = 27     inv. 180 deg rotation - cart. axis [0,1,0]   

 cryst.   s(27) = (     1          0          0      )    f =( -0.2500000 )
                  (     1          0         -1      )       ( -0.2500000 )
                  (     1         -1          0      )       ( -0.2500000 )

 cart.    s(27) = (  1.0000000  0.0000000  0.0000000 )    f =(  0.3535534 )
                  (  0.0000000 -1.0000000  0.0000000 )       ( -0.3535534 )
                  (  0.0000000  0.0000000  1.0000000 )       ( -0.3535534 )


      isym = 28     inv. 180 deg rotation - cart. axis [1,0,0]   

 cryst.   s(28) = (     0          1         -1      )    f =( -0.2500000 )
                  (     0          1          0      )       ( -0.2500000 )
                  (    -1          1          0      )       ( -0.2500000 )

 cart.    s(28) = ( -1.0000000  0.0000000  0.0000000 )    f =(  0.3535534 )
                  (  0.0000000  1.0000000  0.0000000 )       ( -0.3535534 )
                  (  0.0000000  0.0000000  1.0000000 )       ( -0.3535534 )


      isym = 29     inv. 180 deg rotation - cart. axis [1,1,0]   

 cryst.   s(29) = (     0          1          0      )
                  (     1          0          0      )
                  (     0          0          1      )

 cart.    s(29) = (  0.0000000 -1.0000000  0.0000000 )
                  ( -1.0000000  0.0000000  0.0000000 )
                  (  0.0000000  0.0000000  1.0000000 )


      isym = 30     inv. 180 deg rotation - cart. axis [1,-1,0]  

 cryst.   s(30) = (     1          0         -1      )
                  (     0          1         -1      )
                  (     0          0         -1      )

 cart.    s(30) = (  0.0000000  1.0000000  0.0000000 )
                  (  1.0000000  0.0000000  0.0000000 )
                  (  0.0000000  0.0000000  1.0000000 )


      isym = 31     inv.  90 deg rotation - cart. axis [0,0,-1]  

 cryst.   s(31) = (     0         -1          0      )
                  (     0         -1          1      )
                  (     1         -1          0      )

 cart.    s(31) = (  0.0000000 -1.0000000  0.0000000 )
                  (  1.0000000  0.0000000  0.0000000 )
                  (  0.0000000  0.0000000 -1.0000000 )


      isym = 32     inv.  90 deg rotation - cart. axis [0,0,1]   

 cryst.   s(32) = (    -1          0          1      )
                  (    -1          0          0      )
                  (    -1          1          0      )

 cart.    s(32) = (  0.0000000  1.0000000  0.0000000 )
                  ( -1.0000000  0.0000000  0.0000000 )
                  (  0.0000000  0.0000000 -1.0000000 )


      isym = 33     inv. 180 deg rotation - cart. axis [1,0,1]   

 cryst.   s(33) = (     1          0          0      )
                  (     0          0          1      )
                  (     0          1          0      )

 cart.    s(33) = (  0.0000000  0.0000000 -1.0000000 )
                  (  0.0000000  1.0000000  0.0000000 )
                  ( -1.0000000  0.0000000  0.0000000 )


      isym = 34     inv. 180 deg rotation - cart. axis [-1,0,1]  

 cryst.   s(34) = (    -1          0          0      )
                  (    -1          1          0      )
                  (    -1          0          1      )

 cart.    s(34) = (  0.0000000  0.0000000  1.0000000 )
                  (  0.0000000  1.0000000  0.0000000 )
                  (  1.0000000  0.0000000  0.0000000 )


      isym = 35     inv.  90 deg rotation - cart. axis [0,1,0]   

 cryst.   s(35) = (     0         -1          1      )
                  (     1         -1          0      )
                  (     0         -1          0      )

 cart.    s(35) = (  0.0000000  0.0000000 -1.0000000 )
                  (  0.0000000 -1.0000000  0.0000000 )
                  (  1.0000000  0.0000000  0.0000000 )


      isym = 36     inv.  90 deg rotation - cart. axis [0,-1,0]  

 cryst.   s(36) = (     0          1         -1      )
                  (     0          0         -1      )
                  (     1          0         -1      )

 cart.    s(36) = (  0.0000000  0.0000000  1.0000000 )
                  (  0.0000000 -1.0000000  0.0000000 )
                  ( -1.0000000  0.0000000  0.0000000 )


      isym = 37     inv. 180 deg rotation - cart. axis [0,1,1]   

 cryst.   s(37) = (     1         -1          0      )
                  (     0         -1          0      )
                  (     0         -1          1      )

 cart.    s(37) = (  1.0000000  0.0000000  0.0000000 )
                  (  0.0000000  0.0000000 -1.0000000 )
                  (  0.0000000 -1.0000000  0.0000000 )


      isym = 38     inv. 180 deg rotation - cart. axis [0,1,-1]  

 cryst.   s(38) = (     0          0          1      )
                  (     0          1          0      )
                  (     1          0          0      )

 cart.    s(38) = (  1.0000000  0.0000000  0.0000000 )
                  (  0.0000000  0.0000000  1.0000000 )
                  (  0.0000000  1.0000000  0.0000000 )


      isym = 39     inv.  90 deg rotation - cart. axis [-1,0,0]  

 cryst.   s(39) = (     0          0         -1      )
                  (     1          0         -1      )
                  (     0          1         -1      )

 cart.    s(39) = ( -1.0000000  0.0000000  0.0000000 )
                  (  0.0000000  0.0000000 -1.0000000 )
                  (  0.0000000  1.0000000  0.0000000 )


      isym = 40     inv.  90 deg rotation - cart. axis [1,0,0]   

 cryst.   s(40) = (    -1          1          0      )
                  (    -1          0          1      )
                  (    -1          0          0      )

 cart.    s(40) = ( -1.0000000  0.0000000  0.0000000 )
                  (  0.0000000  0.0000000  1.0000000 )
                  (  0.0000000 -1.0000000  0.0000000 )


      isym = 41     inv. 120 deg rotation - cart. axis [-1,-1,-1]

 cryst.   s(41) = (     1          0         -1      )    f =( -0.2500000 )
                  (     1         -1          0      )       ( -0.2500000 )
                  (     1          0          0      )       ( -0.2500000 )

 cart.    s(41) = (  0.0000000 -1.0000000  0.0000000 )    f =(  0.3535534 )
                  (  0.0000000  0.0000000 -1.0000000 )       ( -0.3535534 )
                  ( -1.0000000  0.0000000  0.0000000 )       ( -0.3535534 )


      isym = 42     inv. 120 deg rotation - cart. axis [-1,1,1]  

 cryst.   s(42) = (     0         -1          0      )    f =( -0.2500000 )
                  (     0          0         -1      )       ( -0.2500000 )
                  (    -1          0          0      )       ( -0.2500000 )

 cart.    s(42) = (  0.0000000  1.0000000  0.0000000 )    f =(  0.3535534 )
                  (  0.0000000  0.0000000 -1.0000000 )       ( -0.3535534 )
                  (  1.0000000  0.0000000  0.0000000 )       ( -0.3535534 )


      isym = 43     inv. 120 deg rotation - cart. axis [1,1,-1]  

 cryst.   s(43) = (    -1          0          1      )    f =( -0.2500000 )
                  (     0          0          1      )       ( -0.2500000 )
                  (     0         -1          1      )       ( -0.2500000 )

 cart.    s(43) = (  0.0000000 -1.0000000  0.0000000 )    f =(  0.3535534 )
                  (  0.0000000  0.0000000  1.0000000 )       ( -0.3535534 )
                  (  1.0000000  0.0000000  0.0000000 )       ( -0.3535534 )


      isym = 44     inv. 120 deg rotation - cart. axis [1,-1,1]  

 cryst.   s(44) = (     0          1          0      )    f =( -0.2500000 )
                  (    -1          1          0      )       ( -0.2500000 )
                  (     0          1         -1      )       ( -0.2500000 )

 cart.    s(44) = (  0.0000000  1.0000000  0.0000000 )    f =(  0.3535534 )
                  (  0.0000000  0.0000000  1.0000000 )       ( -0.3535534 )
                  ( -1.0000000  0.0000000  0.0000000 )       ( -0.3535534 )


      isym = 45     inv. 120 deg rotation - cart. axis [1,1,1]   

 cryst.   s(45) = (     0          0          1      )    f =( -0.2500000 )
                  (     0         -1          1      )       ( -0.2500000 )
                  (    -1          0          1      )       ( -0.2500000 )

 cart.    s(45) = (  0.0000000  0.0000000 -1.0000000 )    f =(  0.3535534 )
                  ( -1.0000000  0.0000000  0.0000000 )       ( -0.3535534 )
                  (  0.0000000 -1.0000000  0.0000000 )       ( -0.3535534 )


      isym = 46     inv. 120 deg rotation - cart. axis [-1,1,-1] 

 cryst.   s(46) = (     1         -1          0      )    f =( -0.2500000 )
                  (     1          0          0      )       ( -0.2500000 )
                  (     1          0         -1      )       ( -0.2500000 )

 cart.    s(46) = (  0.0000000  0.0000000 -1.0000000 )    f =(  0.3535534 )
                  (  1.0000000  0.0000000  0.0000000 )       ( -0.3535534 )
                  (  0.0000000  1.0000000  0.0000000 )       ( -0.3535534 )


      isym = 47     inv. 120 deg rotation - cart. axis [1,-1,-1] 

 cryst.   s(47) = (     0          0         -1      )    f =( -0.2500000 )
                  (    -1          0          0      )       ( -0.2500000 )
                  (     0         -1          0      )       ( -0.2500000 )

 cart.    s(47) = (  0.0000000  0.0000000  1.0000000 )    f =(  0.3535534 )
                  (  1.0000000  0.0000000  0.0000000 )       ( -0.3535534 )
                  (  0.0000000 -1.0000000  0.0000000 )       ( -0.3535534 )


      isym = 48     inv. 120 deg rotation - cart. axis [-1,-1,1] 

 cryst.   s(48) = (    -1          1          0      )    f =( -0.2500000 )
                  (     0          1         -1      )       ( -0.2500000 )
                  (     0          1          0      )       ( -0.2500000 )

 cart.    s(48) = (  0.0000000  0.0000000  1.0000000 )    f =(  0.3535534 )
                  ( -1.0000000  0.0000000  0.0000000 )       ( -0.3535534 )
                  (  0.0000000  1.0000000  0.0000000 )       ( -0.3535534 )


   Cartesian axes

     site n.     atom                  positions (alat units)
         1        Si     tau(   1) = (   0.0000000   0.0000000   0.0000000  )
         2        Si     tau(   2) = (  -0.3535534   0.3535534   0.3535534  )

   Crystallographic axes

     site n.     atom                  positions (cryst. coord.)
         1        Si     tau(   1) = (  0.0000000  0.0000000  0.0000000  )
         2        Si     tau(   2) = (  0.2500000  0.2500000  0.2500000  )

     number of k points=    56  Marzari-Vanderbilt smearing, width (Ry)=  0.0200
                       cart. coord. in units 2pi/alat
        k(    1) = (   0.0000000   0.0000000   0.0000000), wk =   0.0015026
        k(    2) = (  -0.0642824   0.0642824  -0.0642824), wk =   0.0120210
        k(    3) = (  -0.1285649   0.1285649  -0.1285649), wk =   0.0120210
        k(    4) = (  -0.1928473   0.1928473  -0.1928473), wk =   0.0120210
        k(    5) = (  -0.2571297   0.2571297  -0.2571297), wk =   0.0120210
        k(    6) = (  -0.3214122   0.3214122  -0.3214122), wk =   0.0120210
        k(    7) = (   0.0000000   0.1285649   0.0000000), wk =   0.0090158
        k(    8) = (  -0.0642824   0.1928473  -0.0642824), wk =   0.0360631
        k(    9) = (  -0.1285649   0.2571297  -0.1285649), wk =   0.0360631
        k(   10) = (  -0.1928473   0.3214122  -0.1928473), wk =   0.0360631
        k(   11) = (  -0.2571297   0.3856946  -0.2571297), wk =   0.0360631
        k(   12) = (   0.3856946  -0.2571297   0.3856946), wk =   0.0360631
        k(   13) = (   0.3214122  -0.1928473   0.3214122), wk =   0.0360631
        k(   14) = (   0.2571297  -0.1285649   0.2571297), wk =   0.0360631
        k(   15) = (   0.1928473  -0.0642824   0.1928473), wk =   0.0360631
        k(   16) = (   0.1285649   0.0000000   0.1285649), wk =   0.0180316
        k(   17) = (   0.0000000   0.2571297   0.0000000), wk =   0.0090158
        k(   18) = (  -0.0642824   0.3214122  -0.0642824), wk =   0.0360631
        k(   19) = (  -0.1285649   0.3856946  -0.1285649), wk =   0.0360631
        k(   20) = (  -0.1928473   0.4499770  -0.1928473), wk =   0.0360631
        k(   21) = (   0.4499770  -0.1928473   0.4499770), wk =   0.0360631
        k(   22) = (   0.3856946  -0.1285649   0.3856946), wk =   0.0360631
        k(   23) = (   0.3214122  -0.0642824   0.3214122), wk =   0.0360631
        k(   24) = (   0.2571297   0.0000000   0.2571297), wk =   0.0180316
        k(   25) = (   0.0000000   0.3856946   0.0000000), wk =   0.0090158
        k(   26) = (  -0.0642824   0.4499770  -0.0642824), wk =   0.0360631
        k(   27) = (  -0.1285649   0.5142595  -0.1285649), wk =   0.0360631
        k(   28) = (   0.5142595  -0.1285649   0.5142595), wk =   0.0360631
        k(   29) = (   0.4499770  -0.0642824   0.4499770), wk =   0.0360631
        k(   30) = (   0.3856946   0.0000000   0.3856946), wk =   0.0180316
        k(   31) = (   0.0000000   0.5142595   0.0000000), wk =   0.0090158
        k(   32) = (  -0.0642824   0.5785419  -0.0642824), wk =   0.0360631
        k(   33) = (   0.5785419  -0.0642824   0.5785419), wk =   0.0360631
        k(   34) = (   0.5142595   0.0000000   0.5142595), wk =   0.0180316
        k(   35) = (   0.0000000   0.6428243   0.0000000), wk =   0.0090158
        k(   36) = (   0.6428243   0.0000000   0.6428243), wk =   0.0180316
        k(   37) = (  -0.1285649   0.2571297   0.0000000), wk =   0.0360631
        k(   38) = (  -0.1928473   0.3214122  -0.0642824), wk =   0.0721262
        k(   39) = (  -0.2571297   0.3856946  -0.1285649), wk =   0.0721262
        k(   40) = (   0.3856946  -0.2571297   0.5142595), wk =   0.0721262
        k(   41) = (  -0.1285649   0.3856946   0.0000000), wk =   0.0360631
        k(   42) = (  -0.1928473   0.4499770  -0.0642824), wk =   0.0721262
        k(   43) = (   0.4499770  -0.1928473   0.5785419), wk =   0.0721262
        k(   44) = (   0.3856946  -0.1285649   0.5142595), wk =   0.0721262
        k(   45) = (   0.3214122  -0.0642824   0.4499770), wk =   0.0721262
        k(   46) = (   0.2571297   0.0000000   0.3856946), wk =   0.0360631
        k(   47) = (  -0.1285649   0.5142595  -0.0000000), wk =   0.0360631
        k(   48) = (   0.5142595  -0.1285649   0.6428243), wk =   0.0721262
        k(   49) = (   0.4499770  -0.0642824   0.5785419), wk =   0.0721262
        k(   50) = (   0.3856946   0.0000000   0.5142595), wk =   0.0360631
        k(   51) = (   0.5785419  -0.0642824   0.7071068), wk =   0.0360631
        k(   52) = (   0.5142595   0.0000000   0.6428243), wk =   0.0360631
        k(   53) = (   0.4499770  -0.1928473   0.7071068), wk =   0.0360631
        k(   54) = (   0.3856946  -0.1285649   0.6428243), wk =   0.0721262
        k(   55) = (   0.4499770  -0.0642824   0.7071068), wk =   0.0360631
        k(   56) = (   0.3856946   0.0000000   0.6428243), wk =   0.0360631

                       cryst. coord.
        k(    1) = (   0.0000000   0.0000000   0.0000000), wk =   0.0015026
        k(    2) = (   0.0000000   0.0000000   0.0909091), wk =   0.0120210
        k(    3) = (   0.0000000   0.0000000   0.1818182), wk =   0.0120210
        k(    4) = (   0.0000000   0.0000000   0.2727273), wk =   0.0120210
        k(    5) = (   0.0000000   0.0000000   0.3636364), wk =   0.0120210
        k(    6) = (   0.0000000   0.0000000   0.4545455), wk =   0.0120210
        k(    7) = (   0.0000000   0.0909091   0.0909091), wk =   0.0090158
        k(    8) = (   0.0000000   0.0909091   0.1818182), wk =   0.0360631
        k(    9) = (   0.0000000   0.0909091   0.2727273), wk =   0.0360631
        k(   10) = (   0.0000000   0.0909091   0.3636364), wk =   0.0360631
        k(   11) = (   0.0000000   0.0909091   0.4545455), wk =   0.0360631
        k(   12) = (   0.0000000   0.0909091  -0.4545455), wk =   0.0360631
        k(   13) = (   0.0000000   0.0909091  -0.3636364), wk =   0.0360631
        k(   14) = (   0.0000000   0.0909091  -0.2727273), wk =   0.0360631
        k(   15) = (   0.0000000   0.0909091  -0.1818182), wk =   0.0360631
        k(   16) = (   0.0000000   0.0909091  -0.0909091), wk =   0.0180316
        k(   17) = (   0.0000000   0.1818182   0.1818182), wk =   0.0090158
        k(   18) = (   0.0000000   0.1818182   0.2727273), wk =   0.0360631
        k(   19) = (   0.0000000   0.1818182   0.3636364), wk =   0.0360631
        k(   20) = (   0.0000000   0.1818182   0.4545455), wk =   0.0360631
        k(   21) = (   0.0000000   0.1818182  -0.4545455), wk =   0.0360631
        k(   22) = (   0.0000000   0.1818182  -0.3636364), wk =   0.0360631
        k(   23) = (   0.0000000   0.1818182  -0.2727273), wk =   0.0360631
        k(   24) = (   0.0000000   0.1818182  -0.1818182), wk =   0.0180316
        k(   25) = (   0.0000000   0.2727273   0.2727273), wk =   0.0090158
        k(   26) = (   0.0000000   0.2727273   0.3636364), wk =   0.0360631
        k(   27) = (   0.0000000   0.2727273   0.4545455), wk =   0.0360631
        k(   28) = (   0.0000000   0.2727273  -0.4545455), wk =   0.0360631
        k(   29) = (   0.0000000   0.2727273  -0.3636364), wk =   0.0360631
        k(   30) = (   0.0000000   0.2727273  -0.2727273), wk =   0.0180316
        k(   31) = (   0.0000000   0.3636364   0.3636364), wk =   0.0090158
        k(   32) = (   0.0000000   0.3636364   0.4545455), wk =   0.0360631
        k(   33) = (   0.0000000   0.3636364  -0.4545455), wk =   0.0360631
        k(   34) = (   0.0000000   0.3636364  -0.3636364), wk =   0.0180316
        k(   35) = (   0.0000000   0.4545455   0.4545455), wk =   0.0090158
        k(   36) = (   0.0000000   0.4545455  -0.4545455), wk =   0.0180316
        k(   37) = (   0.0909091   0.1818182   0.2727273), wk =   0.0360631
        k(   38) = (   0.0909091   0.1818182   0.3636364), wk =   0.0721262
        k(   39) = (   0.0909091   0.1818182   0.4545455), wk =   0.0721262
        k(   40) = (   0.0909091   0.1818182  -0.4545455), wk =   0.0721262
        k(   41) = (   0.0909091   0.2727273   0.3636364), wk =   0.0360631
        k(   42) = (   0.0909091   0.2727273   0.4545455), wk =   0.0721262
        k(   43) = (   0.0909091   0.2727273  -0.4545455), wk =   0.0721262
        k(   44) = (   0.0909091   0.2727273  -0.3636364), wk =   0.0721262
        k(   45) = (   0.0909091   0.2727273  -0.2727273), wk =   0.0721262
        k(   46) = (   0.0909091   0.2727273  -0.1818182), wk =   0.0360631
        k(   47) = (   0.0909091   0.3636364   0.4545455), wk =   0.0360631
        k(   48) = (   0.0909091   0.3636364  -0.4545455), wk =   0.0721262
        k(   49) = (   0.0909091   0.3636364  -0.3636364), wk =   0.0721262
        k(   50) = (   0.0909091   0.3636364  -0.2727273), wk =   0.0360631
        k(   51) = (   0.0909091   0.4545455  -0.4545455), wk =   0.0360631
        k(   52) = (   0.0909091   0.4545455  -0.3636364), wk =   0.0360631
        k(   53) = (   0.1818182   0.3636364  -0.4545455), wk =   0.0360631
        k(   54) = (   0.1818182   0.3636364  -0.3636364), wk =   0.0721262
        k(   55) = (   0.1818182   0.4545455  -0.3636364), wk =   0.0360631
        k(   56) = (   0.1818182   0.4545455  -0.2727273), wk =   0.0360631

     Dense  grid:     6615 G-vectors     FFT dimensions: (  32,  32,  32)

     Dynamical RAM for                 wfc:       0.26 MB

     Dynamical RAM for     wfc (w. buffer):      14.75 MB

     Dynamical RAM for           str. fact:       0.10 MB

     Dynamical RAM for           local pot:       0.00 MB

     Dynamical RAM for          nlocal pot:       1.16 MB

     Dynamical RAM for                qrad:       0.91 MB

     Dynamical RAM for          rho,v,vnew:       1.05 MB

     Dynamical RAM for               rhoin:       0.35 MB

     Dynamical RAM for            rho*nmix:       1.61 MB

     Dynamical RAM for           G-vectors:       0.43 MB

     Dynamical RAM for          h,s,v(r/c):       0.01 MB

     Dynamical RAM for          <psi|beta>:       0.00 MB

     Dynamical RAM for                 psi:       0.52 MB

     Dynamical RAM for                hpsi:       0.52 MB

     Dynamical RAM for      wfcinit/wfcrot:       0.52 MB

     Estimated static dynamical RAM per process >      20.21 MB

     Estimated max dynamical RAM per process >      22.88 MB

     Initial potential from superposition of free atoms

     starting charge       7.9989, renormalised to       8.0000
     Starting wfcs are    8 randomized atomic wfcs

     total cpu time spent up to now is        0.3 secs

     Self-consistent Calculation

     iteration #  1     ecut=    60.00 Ry     beta= 0.40
     Davidson diagonalization with overlap

---- Real-time Memory Report at c_bands before calling an iterative solver
           129 MiB given to the printing process from OS
             0 MiB allocation reported by mallinfo(arena+hblkhd)
         73159 MiB available memory on the node where the printing process lives
------------------
     ethr =  1.00E-02,  avg # of iterations =  4.8

     Threshold (ethr) on eigenvalues was too large:
     Diagonalizing with lowered threshold

     Davidson diagonalization with overlap

---- Real-time Memory Report at c_bands before calling an iterative solver
           131 MiB given to the printing process from OS
             0 MiB allocation reported by mallinfo(arena+hblkhd)
         73155 MiB available memory on the node where the printing process lives
------------------
     ethr =  6.81E-04,  avg # of iterations =  1.8

     total cpu time spent up to now is        1.5 secs

     WARNING: integrated charge=     8.00022025, expected=     8.00000000

     total energy              =     -17.05317036 Ry
     estimated scf accuracy    <       0.05837047 Ry

     iteration #  2     ecut=    60.00 Ry     beta= 0.40
     Davidson diagonalization with overlap

---- Real-time Memory Report at c_bands before calling an iterative solver
           132 MiB given to the printing process from OS
             0 MiB allocation reported by mallinfo(arena+hblkhd)
         73154 MiB available memory on the node where the printing process lives
------------------
     ethr =  7.30E-04,  avg # of iterations =  1.0

     total cpu time spent up to now is        2.0 secs

     WARNING: integrated charge=     8.00171345, expected=     8.00000000

     total energy              =     -17.04847859 Ry
     estimated scf accuracy    <       0.01555893 Ry

     iteration #  3     ecut=    60.00 Ry     beta= 0.40
     Davidson diagonalization with overlap

---- Real-time Memory Report at c_bands before calling an iterative solver
           132 MiB given to the printing process from OS
             0 MiB allocation reported by mallinfo(arena+hblkhd)
         73162 MiB available memory on the node where the printing process lives
------------------
     ethr =  1.94E-04,  avg # of iterations =  1.6

     total cpu time spent up to now is        2.5 secs

     WARNING: integrated charge=     8.00015201, expected=     8.00000000

     total energy              =     -17.05039339 Ry
     estimated scf accuracy    <       0.00026735 Ry

     iteration #  4     ecut=    60.00 Ry     beta= 0.40
     Davidson diagonalization with overlap

---- Real-time Memory Report at c_bands before calling an iterative solver
           132 MiB given to the printing process from OS
             0 MiB allocation reported by mallinfo(arena+hblkhd)
         73160 MiB available memory on the node where the printing process lives
------------------
     ethr =  3.34E-06,  avg # of iterations =  5.5

     total cpu time spent up to now is        3.3 secs

     WARNING: integrated charge=     8.00013966, expected=     8.00000000

     total energy              =     -17.05043856 Ry
     estimated scf accuracy    <       0.00001760 Ry

     iteration #  5     ecut=    60.00 Ry     beta= 0.40
     Davidson diagonalization with overlap

---- Real-time Memory Report at c_bands before calling an iterative solver
           132 MiB given to the printing process from OS
             0 MiB allocation reported by mallinfo(arena+hblkhd)
         73158 MiB available memory on the node where the printing process lives
------------------
     ethr =  2.20E-07,  avg # of iterations =  1.7

     total cpu time spent up to now is        3.8 secs

     WARNING: integrated charge=     8.00004187, expected=     8.00000000

     total energy              =     -17.05044091 Ry
     estimated scf accuracy    <       0.00000039 Ry

     iteration #  6     ecut=    60.00 Ry     beta= 0.40
     Davidson diagonalization with overlap

---- Real-time Memory Report at c_bands before calling an iterative solver
           132 MiB given to the printing process from OS
             0 MiB allocation reported by mallinfo(arena+hblkhd)
         73160 MiB available memory on the node where the printing process lives
------------------
     ethr =  4.89E-09,  avg # of iterations =  2.3

     total cpu time spent up to now is        4.3 secs

     WARNING: integrated charge=     8.00000308, expected=     8.00000000

     total energy              =     -17.05044097 Ry
     estimated scf accuracy    <       0.00000009 Ry

     iteration #  7     ecut=    60.00 Ry     beta= 0.40
     Davidson diagonalization with overlap

---- Real-time Memory Report at c_bands before calling an iterative solver
           133 MiB given to the printing process from OS
             0 MiB allocation reported by mallinfo(arena+hblkhd)
         73160 MiB available memory on the node where the printing process lives
------------------
     ethr =  1.13E-09,  avg # of iterations =  1.7

     total cpu time spent up to now is        4.8 secs

     total energy              =     -17.05044099 Ry
     estimated scf accuracy    <          1.2E-09 Ry

     iteration #  8     ecut=    60.00 Ry     beta= 0.40
     Davidson diagonalization with overlap

---- Real-time Memory Report at c_bands before calling an iterative solver
           133 MiB given to the printing process from OS
             0 MiB allocation reported by mallinfo(arena+hblkhd)
         73160 MiB available memory on the node where the printing process lives
------------------
     ethr =  1.44E-11,  avg # of iterations =  3.9

     total cpu time spent up to now is        5.5 secs

     End of self-consistent calculation

          k = 0.0000 0.0000 0.0000 (  2109 PWs)   bands (ev):

    -5.9251   6.0356   6.0356   6.0356   8.5707   8.5707   8.5707   9.2044

     occupation numbers 
     1.0000   0.5704   0.5704   0.5704   0.0000   0.0000   0.0000   0.0000

          k =-0.0643 0.0643-0.0643 (  2106 PWs)   bands (ev):

    -5.8169   5.0355   5.8677   5.8677   8.5625   8.8173   8.8173  10.0186

     occupation numbers 
     1.0000   1.0000   0.9714   0.9714   0.0000   0.0000   0.0000   0.0000

          k =-0.1286 0.1286-0.1286 (  2112 PWs)   bands (ev):

    -5.4965   3.3504   5.5267   5.5267   8.2305   9.2897   9.2897  11.6024

     occupation numbers 
     1.0000   1.0000   1.0326   1.0326   0.0000   0.0000   0.0000   0.0000

          k =-0.1928 0.1928-0.1928 (  2112 PWs)   bands (ev):

    -4.9800   1.6878   5.2037   5.2037   7.8748   9.5358   9.5358  13.1397

     occupation numbers 
     1.0000   1.0000   1.0004   1.0004   0.0000   0.0000   0.0000   0.0000

          k =-0.2571 0.2571-0.2571 (  2120 PWs)   bands (ev):

    -4.3180   0.2291   4.9729   4.9729   7.6109   9.4724   9.4724  13.7441

     occupation numbers 
     1.0000   1.0000   1.0000   1.0000   0.0000   0.0000   0.0000   0.0000

          k =-0.3214 0.3214-0.3214 (  2117 PWs)   bands (ev):

    -3.7037  -0.7909   4.8554   4.8554   7.4740   9.3622   9.3622  13.5969

     occupation numbers 
     1.0000   1.0000   1.0000   1.0000   0.0000   0.0000   0.0000   0.0000

          k = 0.0000 0.1286 0.0000 (  2117 PWs)   bands (ev):

    -5.7807   5.2152   5.5392   5.5392   8.2347   9.2417   9.2417   9.9518

     occupation numbers 
     1.0000   1.0005   1.0363   1.0363   0.0000   0.0000   0.0000   0.0000

          k =-0.0643 0.1928-0.0643 (  2107 PWs)   bands (ev):

    -5.5302   3.8516   5.1414   5.3213   8.2622   9.2753   9.8329  10.8999

     occupation numbers 
     1.0000   1.0000   1.0001   1.0027   0.0000   0.0000   0.0000   0.0000

          k =-0.1286 0.2571-0.1286 (  2112 PWs)   bands (ev):

    -5.0766   2.2268   4.8226   4.9449   8.3716   9.2739  10.1818  11.3191

     occupation numbers 
     1.0000   1.0000   1.0000   1.0000   0.0000   0.0000   0.0000   0.0000

          k =-0.1928 0.3214-0.1928 (  2117 PWs)   bands (ev):

    -4.4536   0.7154   4.5614   4.6368   8.2100   9.3063  10.1102  12.0921

     occupation numbers 
     1.0000   1.0000   1.0000   1.0000   0.0000   0.0000   0.0000   0.0000

          k =-0.2571 0.3857-0.2571 (  2108 PWs)   bands (ev):

    -3.7807  -0.4819   4.2624   4.5977   8.0672   9.2589   9.8699  13.3114

     occupation numbers 
     1.0000   1.0000   1.0000   1.0000   0.0000   0.0000   0.0000   0.0000

          k = 0.3857-0.2571 0.3857 (  2116 PWs)   bands (ev):

    -3.5083  -0.8862   4.0839   4.7006   8.0410   9.3120   9.6828  13.9446

     occupation numbers 
     1.0000   1.0000   1.0000   1.0000   0.0000   0.0000   0.0000   0.0000

          k = 0.3214-0.1928 0.3214 (  2122 PWs)   bands (ev):

    -3.9956  -0.1328   4.0469   4.9290   8.1437   9.5048   9.6058  13.6705

     occupation numbers 
     1.0000   1.0000   1.0000   1.0000   0.0000   0.0000   0.0000   0.0000

          k = 0.2571-0.1286 0.2571 (  2121 PWs)   bands (ev):

    -4.6775   1.1993   4.1676   5.2539   8.3641   9.5432   9.7245  12.6480

     occupation numbers 
     1.0000   1.0000   1.0000   1.0009   0.0000   0.0000   0.0000   0.0000

          k = 0.1928-0.0643 0.1928 (  2103 PWs)   bands (ev):

    -5.2501   2.7535   4.4647   5.6188   8.6690   9.2663   9.6068  11.7723

     occupation numbers 
     1.0000   1.0000   1.0000   1.0629   0.0000   0.0000   0.0000   0.0000

          k = 0.1286 0.0000 0.1286 (  2103 PWs)   bands (ev):

    -5.6377   4.2283   5.0336   5.8938   8.8663   8.9203   9.0146  10.9041

     occupation numbers 
     1.0000   1.0000   1.0000   0.9249   0.0000   0.0000   0.0000   0.0000

          k = 0.0000 0.2571 0.0000 (  2101 PWs)   bands (ev):

    -5.3500   3.7104   4.7060   4.7060   7.5632  10.0709  10.5882  10.5882

     occupation numbers 
     1.0000   1.0000   1.0000   1.0000   0.0000   0.0000   0.0000   0.0000

          k =-0.0643 0.3214-0.0643 (  2110 PWs)   bands (ev):

    -4.9628   2.5508   4.2813   4.3625   7.6138   9.6556  10.8582  11.1691

     occupation numbers 
     1.0000   1.0000   1.0000   1.0000   0.0000   0.0000   0.0000   0.0000

          k =-0.1286 0.3857-0.1286 (  2111 PWs)   bands (ev):

    -4.3910   1.1751   3.7421   4.1663   7.8449  10.0244  10.6433  11.2457

     occupation numbers 
     1.0000   1.0000   1.0000   1.0000   0.0000   0.0000   0.0000   0.0000

          k =-0.1928 0.4500-0.1928 (  2113 PWs)   bands (ev):

    -3.7085  -0.0672   3.2619   4.1350   7.8787  10.4123  10.9891  11.2411

     occupation numbers 
     1.0000   1.0000   1.0000   1.0000   0.0000   0.0000   0.0000   0.0000

          k = 0.4500-0.1928 0.4500 (  2113 PWs)   bands (ev):

    -3.2218  -0.7820   2.9241   4.2674   7.9790  10.2768  10.6967  12.8664

     occupation numbers 
     1.0000   1.0000   1.0000   1.0000   0.0000   0.0000   0.0000   0.0000

          k = 0.3857-0.1286 0.3857 (  2118 PWs)   bands (ev):

    -3.5095  -0.3676   2.7690   4.5471   8.2363  10.2625  10.4734  13.6672

     occupation numbers 
     1.0000   1.0000   1.0000   1.0000   0.0000   0.0000   0.0000   0.0000

          k = 0.3214-0.0643 0.3214 (  2117 PWs)   bands (ev):

    -4.1843   0.7548   2.8487   4.9361   8.6134  10.2342  10.3134  12.2822

     occupation numbers 
     1.0000   1.0000   1.0000   1.0000   0.0000   0.0000   0.0000   0.0000

          k = 0.2571 0.0000 0.2571 (  2121 PWs)   bands (ev):

    -4.8021   1.9495   3.3333   5.3517   8.9546   9.7486  10.0086  11.6058

     occupation numbers 
     1.0000   1.0000   1.0000   1.0043   0.0000   0.0000   0.0000   0.0000

          k = 0.0000 0.3857 0.0000 (  2113 PWs)   bands (ev):

    -4.6416   2.0927   3.9838   3.9838   6.9556   8.7472  12.1424  12.1424

     occupation numbers 
     1.0000   1.0000   1.0000   1.0000   0.0000   0.0000   0.0000   0.0000

          k =-0.0643 0.4500-0.0643 (  2108 PWs)   bands (ev):

    -4.1278   1.1389   3.4365   3.7522   7.0884   8.4577  12.4169  12.6051

     occupation numbers 
     1.0000   1.0000   1.0000   1.0000   0.0000   0.0000   0.0000   0.0000

          k =-0.1286 0.5143-0.1286 (  2126 PWs)   bands (ev):

    -3.4668   0.1085   2.6980   3.6914   7.2816   9.2242  12.2457  12.4695

     occupation numbers 
     1.0000   1.0000   1.0000   1.0000   0.0000   0.0000   0.0000   0.0000

          k = 0.5143-0.1286 0.5143 (  2124 PWs)   bands (ev):

    -2.8487  -0.6978   2.1190   3.8049   7.4145  10.7051  12.0743  12.1420

     occupation numbers 
     1.0000   1.0000   1.0000   1.0000   0.0000   0.0000   0.0000   0.0000

          k = 0.4500-0.0643 0.4500 (  2125 PWs)   bands (ev):

    -2.9041  -0.6186   1.8302   4.0808   7.7085  11.7644  11.7928  12.6886

     occupation numbers 
     1.0000   1.0000   1.0000   1.0000   0.0000   0.0000   0.0000   0.0000

          k = 0.3857 0.0000 0.3857 (  2129 PWs)   bands (ev):

    -3.5418   0.1435   1.9910   4.4850   8.1624  11.1998  11.4972  12.3448

     occupation numbers 
     1.0000   1.0000   1.0000   1.0000   0.0000   0.0000   0.0000   0.0000

          k = 0.0000 0.5143 0.0000 (  2112 PWs)   bands (ev):

    -3.6715   0.4783   3.4769   3.4769   6.5880   7.6014  13.7897  13.7897

     occupation numbers 
     1.0000   1.0000   1.0000   1.0000   0.0010   0.0000   0.0000   0.0000

          k =-0.0643 0.5785-0.0643 (  2132 PWs)   bands (ev):

    -3.0489  -0.3351   2.9299   3.3719   6.7956   7.6241  14.1048  14.1191

     occupation numbers 
     1.0000   1.0000   1.0000   1.0000   0.0000   0.0000   0.0000   0.0000

          k = 0.5785-0.0643 0.5785 (  2126 PWs)   bands (ev):

    -2.3721  -1.0518   2.1365   3.4456   6.9622   8.8242  13.8385  13.9609

     occupation numbers 
     1.0000   1.0000   1.0000   1.0000   0.0000   0.0000   0.0000   0.0000

          k = 0.5143 0.0000 0.5143 (  2129 PWs)   bands (ev):

    -2.3038  -1.0865   1.6437   3.6909   7.2434  10.5498  13.1665  13.6675

     occupation numbers 
     1.0000   1.0000   1.0000   1.0000   0.0000   0.0000   0.0000   0.0000

          k = 0.0000 0.6428 0.0000 (  2120 PWs)   bands (ev):

    -2.4654  -1.0635   3.2179   3.2179   6.5409   6.8659  15.4628  15.4629

     occupation numbers 
     1.0000   1.0000   1.0000   1.0000   0.0022   0.0000   0.0000   0.0000

          k = 0.6428 0.0000 0.6428 (  2123 PWs)   bands (ev):

    -1.8183  -1.7079   2.7632   3.2433   6.7215   7.3171  15.3947  15.6187

     occupation numbers 
     1.0000   1.0000   1.0000   1.0000   0.0001   0.0000   0.0000   0.0000

          k =-0.1286 0.2571 0.0000 (  2102 PWs)   bands (ev):

    -5.2118   2.9935   4.1879   5.2116   8.3166   9.5961  10.3728  10.7449

     occupation numbers 
     1.0000   1.0000   1.0000   1.0004   0.0000   0.0000   0.0000   0.0000

          k =-0.1928 0.3214-0.0643 (  2113 PWs)   bands (ev):

    -4.6983   1.6713   3.6216   4.8911   8.6234   9.5458  10.6723  10.8771

     occupation numbers 
     1.0000   1.0000   1.0000   1.0000   0.0000   0.0000   0.0000   0.0000

          k =-0.2571 0.3857-0.1286 (  2117 PWs)   bands (ev):

    -4.0381   0.3237   3.3644   4.5460   8.6517   9.3287  10.7919  11.7040

     occupation numbers 
     1.0000   1.0000   1.0000   1.0000   0.0000   0.0000   0.0000   0.0000

          k = 0.3857-0.2571 0.5143 (  2131 PWs)   bands (ev):

    -3.4195  -0.6630   3.2650   4.3348   8.6285   9.1154  10.7243  13.1670

     occupation numbers 
     1.0000   1.0000   1.0000   1.0000   0.0000   0.0000   0.0000   0.0000

          k =-0.1286 0.3857 0.0000 (  2108 PWs)   bands (ev):

    -4.5132   1.7079   3.4696   4.1988   7.7394   9.2544  10.9699  12.0212

     occupation numbers 
     1.0000   1.0000   1.0000   1.0000   0.0000   0.0000   0.0000   0.0000

          k =-0.1928 0.4500-0.0643 (  2122 PWs)   bands (ev):

    -3.8944   0.6267   2.8882   3.8818   8.0965   9.6732  10.6495  12.4066

     occupation numbers 
     1.0000   1.0000   1.0000   1.0000   0.0000   0.0000   0.0000   0.0000

          k = 0.4500-0.1928 0.5785 (  2118 PWs)   bands (ev):

    -3.2183  -0.3874   2.5000   3.7253   8.2257  10.2377  11.0590  12.3602

     occupation numbers 
     1.0000   1.0000   1.0000   1.0000   0.0000   0.0000   0.0000   0.0000

          k = 0.3857-0.1286 0.5143 (  2126 PWs)   bands (ev):

    -2.9488  -0.7399   2.2680   3.8156   8.4410   9.9744  12.2429  12.7335

     occupation numbers 
     1.0000   1.0000   1.0000   1.0000   0.0000   0.0000   0.0000   0.0000

          k = 0.3214-0.0643 0.4500 (  2123 PWs)   bands (ev):

    -3.4588  -0.0456   2.2553   4.1132   8.8092   9.7855  11.5151  12.1659

     occupation numbers 
     1.0000   1.0000   1.0000   1.0000   0.0000   0.0000   0.0000   0.0000

          k = 0.2571 0.0000 0.3857 (  2110 PWs)   bands (ev):

    -4.1366   0.9389   2.6341   4.5312   9.2597   9.3756  10.6135  11.7173

     occupation numbers 
     1.0000   1.0000   1.0000   1.0000   0.0000   0.0000   0.0000   0.0000

          k =-0.1286 0.5143-0.0000 (  2112 PWs)   bands (ev):

    -3.5615   0.3419   2.9931   3.3911   7.3717   8.2126  12.3435  13.7545

     occupation numbers 
     1.0000   1.0000   1.0000   1.0000   0.0000   0.0000   0.0000   0.0000

          k = 0.5143-0.1286 0.6428 (  2127 PWs)   bands (ev):

    -2.8790  -0.4802   2.3389   3.2101   7.7125   9.0420  11.9869  14.1142

     occupation numbers 
     1.0000   1.0000   1.0000   1.0000   0.0000   0.0000   0.0000   0.0000

          k = 0.4500-0.0643 0.5785 (  2131 PWs)   bands (ev):

    -2.4057  -0.9817   1.8099   3.3271   7.9279  10.6140  11.6876  13.2794

     occupation numbers 
     1.0000   1.0000   1.0000   1.0000   0.0000   0.0000   0.0000   0.0000

          k = 0.3857 0.0000 0.5143 (  2128 PWs)   bands (ev):

    -2.7932  -0.5810   1.7039   3.6527   8.3046  11.0469  11.7788  12.6710

     occupation numbers 
     1.0000   1.0000   1.0000   1.0000   0.0000   0.0000   0.0000   0.0000

          k = 0.5785-0.0643 0.7071 (  2127 PWs)   bands (ev):

    -2.3910  -1.0596   2.8019   2.9255   7.2950   7.5613  13.8675  15.2764

     occupation numbers 
     1.0000   1.0000   1.0000   1.0000   0.0000   0.0000   0.0000   0.0000

          k = 0.5143 0.0000 0.6428 (  2132 PWs)   bands (ev):

    -1.8821  -1.5074   2.1274   2.9978   7.5760   8.8361  13.4139  13.6393

     occupation numbers 
     1.0000   1.0000   1.0000   1.0000   0.0000   0.0000   0.0000   0.0000

          k = 0.4500-0.1928 0.7071 (  2127 PWs)   bands (ev):

    -3.2489  -0.0527   2.2226   3.4083   9.0438   9.6672  10.2771  13.6477

     occupation numbers 
     1.0000   1.0000   1.0000   1.0000   0.0000   0.0000   0.0000   0.0000

          k = 0.3857-0.1286 0.6428 (  2123 PWs)   bands (ev):

    -2.6110  -0.7549   1.9392   3.0840   9.4048   9.7780  11.0490  12.9173

     occupation numbers 
     1.0000   1.0000   1.0000   1.0000   0.0000   0.0000   0.0000   0.0000

          k = 0.4500-0.0643 0.7071 (  2152 PWs)   bands (ev):

    -2.2023  -1.1012   2.1727   2.5590   8.9535   9.1559  11.5739  13.1581

     occupation numbers 
     1.0000   1.0000   1.0000   1.0000   0.0000   0.0000   0.0000   0.0000

          k = 0.3857 0.0000 0.6428 (  2149 PWs)   bands (ev):

    -2.0002  -1.2667   1.8877   2.5958   9.3011  10.5770  11.3442  11.3570

     occupation numbers 
     1.0000   1.0000   1.0000   1.0000   0.0000   0.0000   0.0000   0.0000

     the Fermi energy is     6.0992 ev

!    total energy              =     -17.05044099 Ry
     estimated scf accuracy    <          8.8E-11 Ry
     smearing contrib. (-TS)   =       0.00020297 Ry
     internal energy E=F+TS    =     -17.05064396 Ry

     The total energy is F=E-TS. E is the sum of the following terms:
     one-electron contribution =       4.84942078 Ry
     hartree contribution      =       1.09508798 Ry
     xc contribution           =      -6.19782486 Ry
     ewald contribution        =     -16.79732785 Ry

     convergence has been achieved in   8 iterations

     Forces acting on atoms (cartesian axes, Ry/au):

     atom    1 type  1   force =     0.00000000    0.00000000    0.00000000
     atom    2 type  1   force =     0.00000000    0.00000000    0.00000000
     The non-local contrib.  to forces
     atom    1 type  1   force =     0.00000000    0.00000000    0.00000000
     atom    2 type  1   force =     0.00000000    0.00000000    0.00000000
     The ionic contribution  to forces
     atom    1 type  1   force =     0.00000000   -0.00000000   -0.00000000
     atom    2 type  1   force =    -0.00000000    0.00000000    0.00000000
     The local contribution  to forces
     atom    1 type  1   force =     0.00000000   -0.00000000    0.00000000
     atom    2 type  1   force =    -0.00000000    0.00000000    0.00000000
     The core correction contribution to forces
     atom    1 type  1   force =    -0.00000000    0.00000000    0.00000000
     atom    2 type  1   force =     0.00000000   -0.00000000   -0.00000000
     The Hubbard contrib.    to forces
     atom    1 type  1   force =     0.00000000    0.00000000    0.00000000
     atom    2 type  1   force =     0.00000000    0.00000000    0.00000000
     The SCF correction term to forces
     atom    1 type  1   force =     0.00000000   -0.00000000   -0.00000000
     atom    2 type  1   force =    -0.00000000    0.00000000    0.00000000

     Total force =     0.000000     Total SCF correction =     0.000000


     Computing stress (Cartesian axis) and pressure

          total   stress  (Ry/bohr**3)                   (kbar)     P=      -18.62
  -0.00012655  -0.00000000   0.00000000          -18.62       -0.00        0.00
  -0.00000000  -0.00012655  -0.00000000           -0.00      -18.62       -0.00
   0.00000000  -0.00000000  -0.00012655            0.00       -0.00      -18.62

     kinetic stress (kbar)   2234.73      0.00      0.00
                                0.00   2234.73     -0.00
                                0.00      0.00   2234.73

     local   stress (kbar)   -419.00      0.00      0.00
                                0.00   -419.00     -0.00
                                0.00     -0.00   -419.00

     nonloc. stress (kbar)   1972.44     -0.00      0.00
                               -0.00   1972.44      0.00
                                0.00      0.00   1972.44

     hartree stress (kbar)    198.74      0.00      0.00
                                0.00    198.74     -0.00
                                0.00     -0.00    198.74

     exc-cor stress (kbar)   -149.78      0.00      0.00
                                0.00   -149.78      0.00
                                0.00      0.00   -149.78

     corecor stress (kbar)   -807.24      0.00      0.00
                                0.00   -807.24     -0.00
                                0.00     -0.00   -807.24

     ewald   stress (kbar)  -3048.49     -0.00     -0.00
                               -0.00  -3048.49      0.00
                               -0.00      0.00  -3048.49

     hubbard stress (kbar)      0.00      0.00      0.00
                                0.00      0.00      0.00
                                0.00      0.00      0.00

     DFT-D   stress (kbar)      0.00      0.00      0.00
                                0.00      0.00      0.00
                                0.00      0.00      0.00

     XDM     stress (kbar)      0.00      0.00      0.00
                                0.00      0.00      0.00
                                0.00      0.00      0.00

     dft-nl  stress (kbar)      0.00      0.00      0.00
                                0.00      0.00      0.00
                                0.00      0.00      0.00

     TS-vdW  stress (kbar)      0.00      0.00      0.00
                                0.00      0.00      0.00
                                0.00      0.00      0.00

     MDB     stress (kbar)      0.00      0.00      0.00
                                0.00      0.00      0.00
                                0.00      0.00      0.00

     3D-RISM stress (kbar)      0.00      0.00      0.00
                                0.00      0.00      0.00
                                0.00      0.00      0.00


     Writing all to output data dir ./out/aiida.save/ :
     XML data file, charge density, pseudopotentials, collected wavefunctions
 
     init_run     :      0.23s CPU      0.25s WALL (       1 calls)
     electrons    :      5.14s CPU      5.19s WALL (       1 calls)
     forces       :      0.07s CPU      0.07s WALL (       1 calls)
     stress       :      0.44s CPU      0.44s WALL (       1 calls)

     Called by init_run:
     wfcinit      :      0.18s CPU      0.20s WALL (       1 calls)
     wfcinit:atom :      0.01s CPU      0.01s WALL (      56 calls)
     wfcinit:wfcr :      0.12s CPU      0.13s WALL (      56 calls)
     potinit      :      0.01s CPU      0.01s WALL (       1 calls)
     hinit0       :      0.03s CPU      0.03s WALL (       1 calls)

     Called by electrons:
     c_bands      :      4.31s CPU      4.35s WALL (       9 calls)
     sum_band     :      0.81s CPU      0.82s WALL (       9 calls)
     v_of_rho     :      0.02s CPU      0.02s WALL (       9 calls)
     v_h          :      0.00s CPU      0.00s WALL (       9 calls)
     v_xc         :      0.02s CPU      0.02s WALL (      11 calls)
     mix_rho      :      0.00s CPU      0.01s WALL (       9 calls)

     Called by c_bands:
     init_us_2    :      0.49s CPU      0.51s WALL (    1176 calls)
     cegterg      :      3.31s CPU      3.34s WALL (     504 calls)

     Called by sum_band:
     sum_band:wei :      0.01s CPU      0.01s WALL (       9 calls)
     sum_band:loo :      0.79s CPU      0.80s WALL (       9 calls)
     sum_band:buf :      0.02s CPU      0.02s WALL (     504 calls)
     sum_band:ini :      0.22s CPU      0.22s WALL (     504 calls)

     Called by *egterg:
     cdiaghg      :      0.12s CPU      0.12s WALL (    1806 calls)
     cegterg:over :      0.13s CPU      0.14s WALL (    1358 calls)
     cegterg:upda :      0.06s CPU      0.06s WALL (    1358 calls)
     cegterg:last :      0.07s CPU      0.07s WALL (     994 calls)
     h_psi        :      2.94s CPU      2.97s WALL (    1918 calls)
     g_psi        :      0.03s CPU      0.03s WALL (    1358 calls)

     Called by h_psi:
     h_psi:calbec :      0.20s CPU      0.20s WALL (    1918 calls)
     vloc_psi     :      2.53s CPU      2.55s WALL (    1918 calls)
                                        0.00s GPU  (    1918 calls)
     add_vuspsi   :      0.19s CPU      0.19s WALL (    1918 calls)

     General routines
     calbec       :      0.31s CPU      0.31s WALL (    2870 calls)
     fft          :      0.00s CPU      0.00s WALL (      35 calls)
     ffts         :      0.00s CPU      0.00s WALL (       9 calls)
     fftw         :      2.44s CPU      2.47s WALL (   25854 calls)
 
     Parallel routines
 
     PWSCF        :      5.91s CPU      6.00s WALL

 
   This run was terminated on:  12:27:26  16Mar2026            

=------------------------------------------------------------------------------=
   JOB DONE.
=------------------------------------------------------------------------------=
