# File written on 16Mar2026 at 14:07:01 

calc_only_A  :  F

begin real_lattice
  -2.7152612   0.0000000   2.7152612
   0.0000000   2.7152612   2.7152612
  -2.7152612   2.7152612   0.0000000
end real_lattice

begin recip_lattice
  -1.1570131  -1.1570131   1.1570131
   1.1570131   1.1570131   1.1570131
  -1.1570131   1.1570131  -1.1570131
end recip_lattice

begin kpoints
  1331
    0.00000000    0.00000000    0.00000000
    0.00000000    0.00000000    0.09090909
    0.00000000    0.00000000    0.18181818
    0.00000000    0.00000000    0.27272727
    0.00000000    0.00000000    0.36363636
    0.00000000    0.00000000    0.45454545
    0.00000000    0.00000000    0.54545455
    0.00000000    0.00000000    0.63636364
    0.00000000    0.00000000    0.72727273
    0.00000000    0.00000000    0.81818182
    0.00000000    0.00000000    0.90909091
    0.00000000    0.09090909    0.00000000
    0.00000000    0.09090909    0.09090909
    0.00000000    0.09090909    0.18181818
    0.00000000    0.09090909    0.27272727
    0.00000000    0.09090909    0.36363636
    0.00000000    0.09090909    0.45454545
    0.00000000    0.09090909    0.54545455
    0.00000000    0.09090909    0.63636364
    0.00000000    0.09090909    0.72727273
    0.00000000    0.09090909    0.81818182
    0.00000000    0.09090909    0.90909091
    0.00000000    0.18181818    0.00000000
    0.00000000    0.18181818    0.09090909
    0.00000000    0.18181818    0.18181818
    0.00000000    0.18181818    0.27272727
    0.00000000    0.18181818    0.36363636
    0.00000000    0.18181818    0.45454545
    0.00000000    0.18181818    0.54545455
    0.00000000    0.18181818    0.63636364
    0.00000000    0.18181818    0.72727273
    0.00000000    0.18181818    0.81818182
    0.00000000    0.18181818    0.90909091
    0.00000000    0.27272727    0.00000000
    0.00000000    0.27272727    0.09090909
    0.00000000    0.27272727    0.18181818
    0.00000000    0.27272727    0.27272727
    0.00000000    0.27272727    0.36363636
    0.00000000    0.27272727    0.45454545
    0.00000000    0.27272727    0.54545455
    0.00000000    0.27272727    0.63636364
    0.00000000    0.27272727    0.72727273
    0.00000000    0.27272727    0.81818182
    0.00000000    0.27272727    0.90909091
    0.00000000    0.36363636    0.00000000
    0.00000000    0.36363636    0.09090909
    0.00000000    0.36363636    0.18181818
    0.00000000    0.36363636    0.27272727
    0.00000000    0.36363636    0.36363636
    0.00000000    0.36363636    0.45454545
    0.00000000    0.36363636    0.54545455
    0.00000000    0.36363636    0.63636364
    0.00000000    0.36363636    0.72727273
    0.00000000    0.36363636    0.81818182
    0.00000000    0.36363636    0.90909091
    0.00000000    0.45454545    0.00000000
    0.00000000    0.45454545    0.09090909
    0.00000000    0.45454545    0.18181818
    0.00000000    0.45454545    0.27272727
    0.00000000    0.45454545    0.36363636
    0.00000000    0.45454545    0.45454545
    0.00000000    0.45454545    0.54545455
    0.00000000    0.45454545    0.63636364
    0.00000000    0.45454545    0.72727273
    0.00000000    0.45454545    0.81818182
    0.00000000    0.45454545    0.90909091
    0.00000000    0.54545455    0.00000000
    0.00000000    0.54545455    0.09090909
    0.00000000    0.54545455    0.18181818
    0.00000000    0.54545455    0.27272727
    0.00000000    0.54545455    0.36363636
    0.00000000    0.54545455    0.45454545
    0.00000000    0.54545455    0.54545455
    0.00000000    0.54545455    0.63636364
    0.00000000    0.54545455    0.72727273
    0.00000000    0.54545455    0.81818182
    0.00000000    0.54545455    0.90909091
    0.00000000    0.63636364    0.00000000
    0.00000000    0.63636364    0.09090909
    0.00000000    0.63636364    0.18181818
    0.00000000    0.63636364    0.27272727
    0.00000000    0.63636364    0.36363636
    0.00000000    0.63636364    0.45454545
    0.00000000    0.63636364    0.54545455
    0.00000000    0.63636364    0.63636364
    0.00000000    0.63636364    0.72727273
    0.00000000    0.63636364    0.81818182
    0.00000000    0.63636364    0.90909091
    0.00000000    0.72727273    0.00000000
    0.00000000    0.72727273    0.09090909
    0.00000000    0.72727273    0.18181818
    0.00000000    0.72727273    0.27272727
    0.00000000    0.72727273    0.36363636
    0.00000000    0.72727273    0.45454545
    0.00000000    0.72727273    0.54545455
    0.00000000    0.72727273    0.63636364
    0.00000000    0.72727273    0.72727273
    0.00000000    0.72727273    0.81818182
    0.00000000    0.72727273    0.90909091
    0.00000000    0.81818182    0.00000000
    0.00000000    0.81818182    0.09090909
    0.00000000    0.81818182    0.18181818
    0.00000000    0.81818182    0.27272727
    0.00000000    0.81818182    0.36363636
    0.00000000    0.81818182    0.45454545
    0.00000000    0.81818182    0.54545455
    0.00000000    0.81818182    0.63636364
    0.00000000    0.81818182    0.72727273
    0.00000000    0.81818182    0.81818182
    0.00000000    0.81818182    0.90909091
    0.00000000    0.90909091    0.00000000
    0.00000000    0.90909091    0.09090909
    0.00000000    0.90909091    0.18181818
    0.00000000    0.90909091    0.27272727
    0.00000000    0.90909091    0.36363636
    0.00000000    0.90909091    0.45454545
    0.00000000    0.90909091    0.54545455
    0.00000000    0.90909091    0.63636364
    0.00000000    0.90909091    0.72727273
    0.00000000    0.90909091    0.81818182
    0.00000000    0.90909091    0.90909091
    0.09090909    0.00000000    0.00000000
    0.09090909    0.00000000    0.09090909
    0.09090909    0.00000000    0.18181818
    0.09090909    0.00000000    0.27272727
    0.09090909    0.00000000    0.36363636
    0.09090909    0.00000000    0.45454545
    0.09090909    0.00000000    0.54545455
    0.09090909    0.00000000    0.63636364
    0.09090909    0.00000000    0.72727273
    0.09090909    0.00000000    0.81818182
    0.09090909    0.00000000    0.90909091
    0.09090909    0.09090909    0.00000000
    0.09090909    0.09090909    0.09090909
    0.09090909    0.09090909    0.18181818
    0.09090909    0.09090909    0.27272727
    0.09090909    0.09090909    0.36363636
    0.09090909    0.09090909    0.45454545
    0.09090909    0.09090909    0.54545455
    0.09090909    0.09090909    0.63636364
    0.09090909    0.09090909    0.72727273
    0.09090909    0.09090909    0.81818182
    0.09090909    0.09090909    0.90909091
    0.09090909    0.18181818    0.00000000
    0.09090909    0.18181818    0.09090909
    0.09090909    0.18181818    0.18181818
    0.09090909    0.18181818    0.27272727
    0.09090909    0.18181818    0.36363636
    0.09090909    0.18181818    0.45454545
    0.09090909    0.18181818    0.54545455
    0.09090909    0.18181818    0.63636364
    0.09090909    0.18181818    0.72727273
    0.09090909    0.18181818    0.81818182
    0.09090909    0.18181818    0.90909091
    0.09090909    0.27272727    0.00000000
    0.09090909    0.27272727    0.09090909
    0.09090909    0.27272727    0.18181818
    0.09090909    0.27272727    0.27272727
    0.09090909    0.27272727    0.36363636
    0.09090909    0.27272727    0.45454545
    0.09090909    0.27272727    0.54545455
    0.09090909    0.27272727    0.63636364
    0.09090909    0.27272727    0.72727273
    0.09090909    0.27272727    0.81818182
    0.09090909    0.27272727    0.90909091
    0.09090909    0.36363636    0.00000000
    0.09090909    0.36363636    0.09090909
    0.09090909    0.36363636    0.18181818
    0.09090909    0.36363636    0.27272727
    0.09090909    0.36363636    0.36363636
    0.09090909    0.36363636    0.45454545
    0.09090909    0.36363636    0.54545455
    0.09090909    0.36363636    0.63636364
    0.09090909    0.36363636    0.72727273
    0.09090909    0.36363636    0.81818182
    0.09090909    0.36363636    0.90909091
    0.09090909    0.45454545    0.00000000
    0.09090909    0.45454545    0.09090909
    0.09090909    0.45454545    0.18181818
    0.09090909    0.45454545    0.27272727
    0.09090909    0.45454545    0.36363636
    0.09090909    0.45454545    0.45454545
    0.09090909    0.45454545    0.54545455
    0.09090909    0.45454545    0.63636364
    0.09090909    0.45454545    0.72727273
    0.09090909    0.45454545    0.81818182
    0.09090909    0.45454545    0.90909091
    0.09090909    0.54545455    0.00000000
    0.09090909    0.54545455    0.09090909
    0.09090909    0.54545455    0.18181818
    0.09090909    0.54545455    0.27272727
    0.09090909    0.54545455    0.36363636
    0.09090909    0.54545455    0.45454545
    0.09090909    0.54545455    0.54545455
    0.09090909    0.54545455    0.63636364
    0.09090909    0.54545455    0.72727273
    0.09090909    0.54545455    0.81818182
    0.09090909    0.54545455    0.90909091
    0.09090909    0.63636364    0.00000000
    0.09090909    0.63636364    0.09090909
    0.09090909    0.63636364    0.18181818
    0.09090909    0.63636364    0.27272727
    0.09090909    0.63636364    0.36363636
    0.09090909    0.63636364    0.45454545
    0.09090909    0.63636364    0.54545455
    0.09090909    0.63636364    0.63636364
    0.09090909    0.63636364    0.72727273
    0.09090909    0.63636364    0.81818182
    0.09090909    0.63636364    0.90909091
    0.09090909    0.72727273    0.00000000
    0.09090909    0.72727273    0.09090909
    0.09090909    0.72727273    0.18181818
    0.09090909    0.72727273    0.27272727
    0.09090909    0.72727273    0.36363636
    0.09090909    0.72727273    0.45454545
    0.09090909    0.72727273    0.54545455
    0.09090909    0.72727273    0.63636364
    0.09090909    0.72727273    0.72727273
    0.09090909    0.72727273    0.81818182
    0.09090909    0.72727273    0.90909091
    0.09090909    0.81818182    0.00000000
    0.09090909    0.81818182    0.09090909
    0.09090909    0.81818182    0.18181818
    0.09090909    0.81818182    0.27272727
    0.09090909    0.81818182    0.36363636
    0.09090909    0.81818182    0.45454545
    0.09090909    0.81818182    0.54545455
    0.09090909    0.81818182    0.63636364
    0.09090909    0.81818182    0.72727273
    0.09090909    0.81818182    0.81818182
    0.09090909    0.81818182    0.90909091
    0.09090909    0.90909091    0.00000000
    0.09090909    0.90909091    0.09090909
    0.09090909    0.90909091    0.18181818
    0.09090909    0.90909091    0.27272727
    0.09090909    0.90909091    0.36363636
    0.09090909    0.90909091    0.45454545
    0.09090909    0.90909091    0.54545455
    0.09090909    0.90909091    0.63636364
    0.09090909    0.90909091    0.72727273
    0.09090909    0.90909091    0.81818182
    0.09090909    0.90909091    0.90909091
    0.18181818    0.00000000    0.00000000
    0.18181818    0.00000000    0.09090909
    0.18181818    0.00000000    0.18181818
    0.18181818    0.00000000    0.27272727
    0.18181818    0.00000000    0.36363636
    0.18181818    0.00000000    0.45454545
    0.18181818    0.00000000    0.54545455
    0.18181818    0.00000000    0.63636364
    0.18181818    0.00000000    0.72727273
    0.18181818    0.00000000    0.81818182
    0.18181818    0.00000000    0.90909091
    0.18181818    0.09090909    0.00000000
    0.18181818    0.09090909    0.09090909
    0.18181818    0.09090909    0.18181818
    0.18181818    0.09090909    0.27272727
    0.18181818    0.09090909    0.36363636
    0.18181818    0.09090909    0.45454545
    0.18181818    0.09090909    0.54545455
    0.18181818    0.09090909    0.63636364
    0.18181818    0.09090909    0.72727273
    0.18181818    0.09090909    0.81818182
    0.18181818    0.09090909    0.90909091
    0.18181818    0.18181818    0.00000000
    0.18181818    0.18181818    0.09090909
    0.18181818    0.18181818    0.18181818
    0.18181818    0.18181818    0.27272727
    0.18181818    0.18181818    0.36363636
    0.18181818    0.18181818    0.45454545
    0.18181818    0.18181818    0.54545455
    0.18181818    0.18181818    0.63636364
    0.18181818    0.18181818    0.72727273
    0.18181818    0.18181818    0.81818182
    0.18181818    0.18181818    0.90909091
    0.18181818    0.27272727    0.00000000
    0.18181818    0.27272727    0.09090909
    0.18181818    0.27272727    0.18181818
    0.18181818    0.27272727    0.27272727
    0.18181818    0.27272727    0.36363636
    0.18181818    0.27272727    0.45454545
    0.18181818    0.27272727    0.54545455
    0.18181818    0.27272727    0.63636364
    0.18181818    0.27272727    0.72727273
    0.18181818    0.27272727    0.81818182
    0.18181818    0.27272727    0.90909091
    0.18181818    0.36363636    0.00000000
    0.18181818    0.36363636    0.09090909
    0.18181818    0.36363636    0.18181818
    0.18181818    0.36363636    0.27272727
    0.18181818    0.36363636    0.36363636
    0.18181818    0.36363636    0.45454545
    0.18181818    0.36363636    0.54545455
    0.18181818    0.36363636    0.63636364
    0.18181818    0.36363636    0.72727273
    0.18181818    0.36363636    0.81818182
    0.18181818    0.36363636    0.90909091
    0.18181818    0.45454545    0.00000000
    0.18181818    0.45454545    0.09090909
    0.18181818    0.45454545    0.18181818
    0.18181818    0.45454545    0.27272727
    0.18181818    0.45454545    0.36363636
    0.18181818    0.45454545    0.45454545
    0.18181818    0.45454545    0.54545455
    0.18181818    0.45454545    0.63636364
    0.18181818    0.45454545    0.72727273
    0.18181818    0.45454545    0.81818182
    0.18181818    0.45454545    0.90909091
    0.18181818    0.54545455    0.00000000
    0.18181818    0.54545455    0.09090909
    0.18181818    0.54545455    0.18181818
    0.18181818    0.54545455    0.27272727
    0.18181818    0.54545455    0.36363636
    0.18181818    0.54545455    0.45454545
    0.18181818    0.54545455    0.54545455
    0.18181818    0.54545455    0.63636364
    0.18181818    0.54545455    0.72727273
    0.18181818    0.54545455    0.81818182
    0.18181818    0.54545455    0.90909091
    0.18181818    0.63636364    0.00000000
    0.18181818    0.63636364    0.09090909
    0.18181818    0.63636364    0.18181818
    0.18181818    0.63636364    0.27272727
    0.18181818    0.63636364    0.36363636
    0.18181818    0.63636364    0.45454545
    0.18181818    0.63636364    0.54545455
    0.18181818    0.63636364    0.63636364
    0.18181818    0.63636364    0.72727273
    0.18181818    0.63636364    0.81818182
    0.18181818    0.63636364    0.90909091
    0.18181818    0.72727273    0.00000000
    0.18181818    0.72727273    0.09090909
    0.18181818    0.72727273    0.18181818
    0.18181818    0.72727273    0.27272727
    0.18181818    0.72727273    0.36363636
    0.18181818    0.72727273    0.45454545
    0.18181818    0.72727273    0.54545455
    0.18181818    0.72727273    0.63636364
    0.18181818    0.72727273    0.72727273
    0.18181818    0.72727273    0.81818182
    0.18181818    0.72727273    0.90909091
    0.18181818    0.81818182    0.00000000
    0.18181818    0.81818182    0.09090909
    0.18181818    0.81818182    0.18181818
    0.18181818    0.81818182    0.27272727
    0.18181818    0.81818182    0.36363636
    0.18181818    0.81818182    0.45454545
    0.18181818    0.81818182    0.54545455
    0.18181818    0.81818182    0.63636364
    0.18181818    0.81818182    0.72727273
    0.18181818    0.81818182    0.81818182
    0.18181818    0.81818182    0.90909091
    0.18181818    0.90909091    0.00000000
    0.18181818    0.90909091    0.09090909
    0.18181818    0.90909091    0.18181818
    0.18181818    0.90909091    0.27272727
    0.18181818    0.90909091    0.36363636
    0.18181818    0.90909091    0.45454545
    0.18181818    0.90909091    0.54545455
    0.18181818    0.90909091    0.63636364
    0.18181818    0.90909091    0.72727273
    0.18181818    0.90909091    0.81818182
    0.18181818    0.90909091    0.90909091
    0.27272727    0.00000000    0.00000000
    0.27272727    0.00000000    0.09090909
    0.27272727    0.00000000    0.18181818
    0.27272727    0.00000000    0.27272727
    0.27272727    0.00000000    0.36363636
    0.27272727    0.00000000    0.45454545
    0.27272727    0.00000000    0.54545455
    0.27272727    0.00000000    0.63636364
    0.27272727    0.00000000    0.72727273
    0.27272727    0.00000000    0.81818182
    0.27272727    0.00000000    0.90909091
    0.27272727    0.09090909    0.00000000
    0.27272727    0.09090909    0.09090909
    0.27272727    0.09090909    0.18181818
    0.27272727    0.09090909    0.27272727
    0.27272727    0.09090909    0.36363636
    0.27272727    0.09090909    0.45454545
    0.27272727    0.09090909    0.54545455
    0.27272727    0.09090909    0.63636364
    0.27272727    0.09090909    0.72727273
    0.27272727    0.09090909    0.81818182
    0.27272727    0.09090909    0.90909091
    0.27272727    0.18181818    0.00000000
    0.27272727    0.18181818    0.09090909
    0.27272727    0.18181818    0.18181818
    0.27272727    0.18181818    0.27272727
    0.27272727    0.18181818    0.36363636
    0.27272727    0.18181818    0.45454545
    0.27272727    0.18181818    0.54545455
    0.27272727    0.18181818    0.63636364
    0.27272727    0.18181818    0.72727273
    0.27272727    0.18181818    0.81818182
    0.27272727    0.18181818    0.90909091
    0.27272727    0.27272727    0.00000000
    0.27272727    0.27272727    0.09090909
    0.27272727    0.27272727    0.18181818
    0.27272727    0.27272727    0.27272727
    0.27272727    0.27272727    0.36363636
    0.27272727    0.27272727    0.45454545
    0.27272727    0.27272727    0.54545455
    0.27272727    0.27272727    0.63636364
    0.27272727    0.27272727    0.72727273
    0.27272727    0.27272727    0.81818182
    0.27272727    0.27272727    0.90909091
    0.27272727    0.36363636    0.00000000
    0.27272727    0.36363636    0.09090909
    0.27272727    0.36363636    0.18181818
    0.27272727    0.36363636    0.27272727
    0.27272727    0.36363636    0.36363636
    0.27272727    0.36363636    0.45454545
    0.27272727    0.36363636    0.54545455
    0.27272727    0.36363636    0.63636364
    0.27272727    0.36363636    0.72727273
    0.27272727    0.36363636    0.81818182
    0.27272727    0.36363636    0.90909091
    0.27272727    0.45454545    0.00000000
    0.27272727    0.45454545    0.09090909
    0.27272727    0.45454545    0.18181818
    0.27272727    0.45454545    0.27272727
    0.27272727    0.45454545    0.36363636
    0.27272727    0.45454545    0.45454545
    0.27272727    0.45454545    0.54545455
    0.27272727    0.45454545    0.63636364
    0.27272727    0.45454545    0.72727273
    0.27272727    0.45454545    0.81818182
    0.27272727    0.45454545    0.90909091
    0.27272727    0.54545455    0.00000000
    0.27272727    0.54545455    0.09090909
    0.27272727    0.54545455    0.18181818
    0.27272727    0.54545455    0.27272727
    0.27272727    0.54545455    0.36363636
    0.27272727    0.54545455    0.45454545
    0.27272727    0.54545455    0.54545455
    0.27272727    0.54545455    0.63636364
    0.27272727    0.54545455    0.72727273
    0.27272727    0.54545455    0.81818182
    0.27272727    0.54545455    0.90909091
    0.27272727    0.63636364    0.00000000
    0.27272727    0.63636364    0.09090909
    0.27272727    0.63636364    0.18181818
    0.27272727    0.63636364    0.27272727
    0.27272727    0.63636364    0.36363636
    0.27272727    0.63636364    0.45454545
    0.27272727    0.63636364    0.54545455
    0.27272727    0.63636364    0.63636364
    0.27272727    0.63636364    0.72727273
    0.27272727    0.63636364    0.81818182
    0.27272727    0.63636364    0.90909091
    0.27272727    0.72727273    0.00000000
    0.27272727    0.72727273    0.09090909
    0.27272727    0.72727273    0.18181818
    0.27272727    0.72727273    0.27272727
    0.27272727    0.72727273    0.36363636
    0.27272727    0.72727273    0.45454545
    0.27272727    0.72727273    0.54545455
    0.27272727    0.72727273    0.63636364
    0.27272727    0.72727273    0.72727273
    0.27272727    0.72727273    0.81818182
    0.27272727    0.72727273    0.90909091
    0.27272727    0.81818182    0.00000000
    0.27272727    0.81818182    0.09090909
    0.27272727    0.81818182    0.18181818
    0.27272727    0.81818182    0.27272727
    0.27272727    0.81818182    0.36363636
    0.27272727    0.81818182    0.45454545
    0.27272727    0.81818182    0.54545455
    0.27272727    0.81818182    0.63636364
    0.27272727    0.81818182    0.72727273
    0.27272727    0.81818182    0.81818182
    0.27272727    0.81818182    0.90909091
    0.27272727    0.90909091    0.00000000
    0.27272727    0.90909091    0.09090909
    0.27272727    0.90909091    0.18181818
    0.27272727    0.90909091    0.27272727
    0.27272727    0.90909091    0.36363636
    0.27272727    0.90909091    0.45454545
    0.27272727    0.90909091    0.54545455
    0.27272727    0.90909091    0.63636364
    0.27272727    0.90909091    0.72727273
    0.27272727    0.90909091    0.81818182
    0.27272727    0.90909091    0.90909091
    0.36363636    0.00000000    0.00000000
    0.36363636    0.00000000    0.09090909
    0.36363636    0.00000000    0.18181818
    0.36363636    0.00000000    0.27272727
    0.36363636    0.00000000    0.36363636
    0.36363636    0.00000000    0.45454545
    0.36363636    0.00000000    0.54545455
    0.36363636    0.00000000    0.63636364
    0.36363636    0.00000000    0.72727273
    0.36363636    0.00000000    0.81818182
    0.36363636    0.00000000    0.90909091
    0.36363636    0.09090909    0.00000000
    0.36363636    0.09090909    0.09090909
    0.36363636    0.09090909    0.18181818
    0.36363636    0.09090909    0.27272727
    0.36363636    0.09090909    0.36363636
    0.36363636    0.09090909    0.45454545
    0.36363636    0.09090909    0.54545455
    0.36363636    0.09090909    0.63636364
    0.36363636    0.09090909    0.72727273
    0.36363636    0.09090909    0.81818182
    0.36363636    0.09090909    0.90909091
    0.36363636    0.18181818    0.00000000
    0.36363636    0.18181818    0.09090909
    0.36363636    0.18181818    0.18181818
    0.36363636    0.18181818    0.27272727
    0.36363636    0.18181818    0.36363636
    0.36363636    0.18181818    0.45454545
    0.36363636    0.18181818    0.54545455
    0.36363636    0.18181818    0.63636364
    0.36363636    0.18181818    0.72727273
    0.36363636    0.18181818    0.81818182
    0.36363636    0.18181818    0.90909091
    0.36363636    0.27272727    0.00000000
    0.36363636    0.27272727    0.09090909
    0.36363636    0.27272727    0.18181818
    0.36363636    0.27272727    0.27272727
    0.36363636    0.27272727    0.36363636
    0.36363636    0.27272727    0.45454545
    0.36363636    0.27272727    0.54545455
    0.36363636    0.27272727    0.63636364
    0.36363636    0.27272727    0.72727273
    0.36363636    0.27272727    0.81818182
    0.36363636    0.27272727    0.90909091
    0.36363636    0.36363636    0.00000000
    0.36363636    0.36363636    0.09090909
    0.36363636    0.36363636    0.18181818
    0.36363636    0.36363636    0.27272727
    0.36363636    0.36363636    0.36363636
    0.36363636    0.36363636    0.45454545
    0.36363636    0.36363636    0.54545455
    0.36363636    0.36363636    0.63636364
    0.36363636    0.36363636    0.72727273
    0.36363636    0.36363636    0.81818182
    0.36363636    0.36363636    0.90909091
    0.36363636    0.45454545    0.00000000
    0.36363636    0.45454545    0.09090909
    0.36363636    0.45454545    0.18181818
    0.36363636    0.45454545    0.27272727
    0.36363636    0.45454545    0.36363636
    0.36363636    0.45454545    0.45454545
    0.36363636    0.45454545    0.54545455
    0.36363636    0.45454545    0.63636364
    0.36363636    0.45454545    0.72727273
    0.36363636    0.45454545    0.81818182
    0.36363636    0.45454545    0.90909091
    0.36363636    0.54545455    0.00000000
    0.36363636    0.54545455    0.09090909
    0.36363636    0.54545455    0.18181818
    0.36363636    0.54545455    0.27272727
    0.36363636    0.54545455    0.36363636
    0.36363636    0.54545455    0.45454545
    0.36363636    0.54545455    0.54545455
    0.36363636    0.54545455    0.63636364
    0.36363636    0.54545455    0.72727273
    0.36363636    0.54545455    0.81818182
    0.36363636    0.54545455    0.90909091
    0.36363636    0.63636364    0.00000000
    0.36363636    0.63636364    0.09090909
    0.36363636    0.63636364    0.18181818
    0.36363636    0.63636364    0.27272727
    0.36363636    0.63636364    0.36363636
    0.36363636    0.63636364    0.45454545
    0.36363636    0.63636364    0.54545455
    0.36363636    0.63636364    0.63636364
    0.36363636    0.63636364    0.72727273
    0.36363636    0.63636364    0.81818182
    0.36363636    0.63636364    0.90909091
    0.36363636    0.72727273    0.00000000
    0.36363636    0.72727273    0.09090909
    0.36363636    0.72727273    0.18181818
    0.36363636    0.72727273    0.27272727
    0.36363636    0.72727273    0.36363636
    0.36363636    0.72727273    0.45454545
    0.36363636    0.72727273    0.54545455
    0.36363636    0.72727273    0.63636364
    0.36363636    0.72727273    0.72727273
    0.36363636    0.72727273    0.81818182
    0.36363636    0.72727273    0.90909091
    0.36363636    0.81818182    0.00000000
    0.36363636    0.81818182    0.09090909
    0.36363636    0.81818182    0.18181818
    0.36363636    0.81818182    0.27272727
    0.36363636    0.81818182    0.36363636
    0.36363636    0.81818182    0.45454545
    0.36363636    0.81818182    0.54545455
    0.36363636    0.81818182    0.63636364
    0.36363636    0.81818182    0.72727273
    0.36363636    0.81818182    0.81818182
    0.36363636    0.81818182    0.90909091
    0.36363636    0.90909091    0.00000000
    0.36363636    0.90909091    0.09090909
    0.36363636    0.90909091    0.18181818
    0.36363636    0.90909091    0.27272727
    0.36363636    0.90909091    0.36363636
    0.36363636    0.90909091    0.45454545
    0.36363636    0.90909091    0.54545455
    0.36363636    0.90909091    0.63636364
    0.36363636    0.90909091    0.72727273
    0.36363636    0.90909091    0.81818182
    0.36363636    0.90909091    0.90909091
    0.45454545    0.00000000    0.00000000
    0.45454545    0.00000000    0.09090909
    0.45454545    0.00000000    0.18181818
    0.45454545    0.00000000    0.27272727
    0.45454545    0.00000000    0.36363636
    0.45454545    0.00000000    0.45454545
    0.45454545    0.00000000    0.54545455
    0.45454545    0.00000000    0.63636364
    0.45454545    0.00000000    0.72727273
    0.45454545    0.00000000    0.81818182
    0.45454545    0.00000000    0.90909091
    0.45454545    0.09090909    0.00000000
    0.45454545    0.09090909    0.09090909
    0.45454545    0.09090909    0.18181818
    0.45454545    0.09090909    0.27272727
    0.45454545    0.09090909    0.36363636
    0.45454545    0.09090909    0.45454545
    0.45454545    0.09090909    0.54545455
    0.45454545    0.09090909    0.63636364
    0.45454545    0.09090909    0.72727273
    0.45454545    0.09090909    0.81818182
    0.45454545    0.09090909    0.90909091
    0.45454545    0.18181818    0.00000000
    0.45454545    0.18181818    0.09090909
    0.45454545    0.18181818    0.18181818
    0.45454545    0.18181818    0.27272727
    0.45454545    0.18181818    0.36363636
    0.45454545    0.18181818    0.45454545
    0.45454545    0.18181818    0.54545455
    0.45454545    0.18181818    0.63636364
    0.45454545    0.18181818    0.72727273
    0.45454545    0.18181818    0.81818182
    0.45454545    0.18181818    0.90909091
    0.45454545    0.27272727    0.00000000
    0.45454545    0.27272727    0.09090909
    0.45454545    0.27272727    0.18181818
    0.45454545    0.27272727    0.27272727
    0.45454545    0.27272727    0.36363636
    0.45454545    0.27272727    0.45454545
    0.45454545    0.27272727    0.54545455
    0.45454545    0.27272727    0.63636364
    0.45454545    0.27272727    0.72727273
    0.45454545    0.27272727    0.81818182
    0.45454545    0.27272727    0.90909091
    0.45454545    0.36363636    0.00000000
    0.45454545    0.36363636    0.09090909
    0.45454545    0.36363636    0.18181818
    0.45454545    0.36363636    0.27272727
    0.45454545    0.36363636    0.36363636
    0.45454545    0.36363636    0.45454545
    0.45454545    0.36363636    0.54545455
    0.45454545    0.36363636    0.63636364
    0.45454545    0.36363636    0.72727273
    0.45454545    0.36363636    0.81818182
    0.45454545    0.36363636    0.90909091
    0.45454545    0.45454545    0.00000000
    0.45454545    0.45454545    0.09090909
    0.45454545    0.45454545    0.18181818
    0.45454545    0.45454545    0.27272727
    0.45454545    0.45454545    0.36363636
    0.45454545    0.45454545    0.45454545
    0.45454545    0.45454545    0.54545455
    0.45454545    0.45454545    0.63636364
    0.45454545    0.45454545    0.72727273
    0.45454545    0.45454545    0.81818182
    0.45454545    0.45454545    0.90909091
    0.45454545    0.54545455    0.00000000
    0.45454545    0.54545455    0.09090909
    0.45454545    0.54545455    0.18181818
    0.45454545    0.54545455    0.27272727
    0.45454545    0.54545455    0.36363636
    0.45454545    0.54545455    0.45454545
    0.45454545    0.54545455    0.54545455
    0.45454545    0.54545455    0.63636364
    0.45454545    0.54545455    0.72727273
    0.45454545    0.54545455    0.81818182
    0.45454545    0.54545455    0.90909091
    0.45454545    0.63636364    0.00000000
    0.45454545    0.63636364    0.09090909
    0.45454545    0.63636364    0.18181818
    0.45454545    0.63636364    0.27272727
    0.45454545    0.63636364    0.36363636
    0.45454545    0.63636364    0.45454545
    0.45454545    0.63636364    0.54545455
    0.45454545    0.63636364    0.63636364
    0.45454545    0.63636364    0.72727273
    0.45454545    0.63636364    0.81818182
    0.45454545    0.63636364    0.90909091
    0.45454545    0.72727273    0.00000000
    0.45454545    0.72727273    0.09090909
    0.45454545    0.72727273    0.18181818
    0.45454545    0.72727273    0.27272727
    0.45454545    0.72727273    0.36363636
    0.45454545    0.72727273    0.45454545
    0.45454545    0.72727273    0.54545455
    0.45454545    0.72727273    0.63636364
    0.45454545    0.72727273    0.72727273
    0.45454545    0.72727273    0.81818182
    0.45454545    0.72727273    0.90909091
    0.45454545    0.81818182    0.00000000
    0.45454545    0.81818182    0.09090909
    0.45454545    0.81818182    0.18181818
    0.45454545    0.81818182    0.27272727
    0.45454545    0.81818182    0.36363636
    0.45454545    0.81818182    0.45454545
    0.45454545    0.81818182    0.54545455
    0.45454545    0.81818182    0.63636364
    0.45454545    0.81818182    0.72727273
    0.45454545    0.81818182    0.81818182
    0.45454545    0.81818182    0.90909091
    0.45454545    0.90909091    0.00000000
    0.45454545    0.90909091    0.09090909
    0.45454545    0.90909091    0.18181818
    0.45454545    0.90909091    0.27272727
    0.45454545    0.90909091    0.36363636
    0.45454545    0.90909091    0.45454545
    0.45454545    0.90909091    0.54545455
    0.45454545    0.90909091    0.63636364
    0.45454545    0.90909091    0.72727273
    0.45454545    0.90909091    0.81818182
    0.45454545    0.90909091    0.90909091
    0.54545455    0.00000000    0.00000000
    0.54545455    0.00000000    0.09090909
    0.54545455    0.00000000    0.18181818
    0.54545455    0.00000000    0.27272727
    0.54545455    0.00000000    0.36363636
    0.54545455    0.00000000    0.45454545
    0.54545455    0.00000000    0.54545455
    0.54545455    0.00000000    0.63636364
    0.54545455    0.00000000    0.72727273
    0.54545455    0.00000000    0.81818182
    0.54545455    0.00000000    0.90909091
    0.54545455    0.09090909    0.00000000
    0.54545455    0.09090909    0.09090909
    0.54545455    0.09090909    0.18181818
    0.54545455    0.09090909    0.27272727
    0.54545455    0.09090909    0.36363636
    0.54545455    0.09090909    0.45454545
    0.54545455    0.09090909    0.54545455
    0.54545455    0.09090909    0.63636364
    0.54545455    0.09090909    0.72727273
    0.54545455    0.09090909    0.81818182
    0.54545455    0.09090909    0.90909091
    0.54545455    0.18181818    0.00000000
    0.54545455    0.18181818    0.09090909
    0.54545455    0.18181818    0.18181818
    0.54545455    0.18181818    0.27272727
    0.54545455    0.18181818    0.36363636
    0.54545455    0.18181818    0.45454545
    0.54545455    0.18181818    0.54545455
    0.54545455    0.18181818    0.63636364
    0.54545455    0.18181818    0.72727273
    0.54545455    0.18181818    0.81818182
    0.54545455    0.18181818    0.90909091
    0.54545455    0.27272727    0.00000000
    0.54545455    0.27272727    0.09090909
    0.54545455    0.27272727    0.18181818
    0.54545455    0.27272727    0.27272727
    0.54545455    0.27272727    0.36363636
    0.54545455    0.27272727    0.45454545
    0.54545455    0.27272727    0.54545455
    0.54545455    0.27272727    0.63636364
    0.54545455    0.27272727    0.72727273
    0.54545455    0.27272727    0.81818182
    0.54545455    0.27272727    0.90909091
    0.54545455    0.36363636    0.00000000
    0.54545455    0.36363636    0.09090909
    0.54545455    0.36363636    0.18181818
    0.54545455    0.36363636    0.27272727
    0.54545455    0.36363636    0.36363636
    0.54545455    0.36363636    0.45454545
    0.54545455    0.36363636    0.54545455
    0.54545455    0.36363636    0.63636364
    0.54545455    0.36363636    0.72727273
    0.54545455    0.36363636    0.81818182
    0.54545455    0.36363636    0.90909091
    0.54545455    0.45454545    0.00000000
    0.54545455    0.45454545    0.09090909
    0.54545455    0.45454545    0.18181818
    0.54545455    0.45454545    0.27272727
    0.54545455    0.45454545    0.36363636
    0.54545455    0.45454545    0.45454545
    0.54545455    0.45454545    0.54545455
    0.54545455    0.45454545    0.63636364
    0.54545455    0.45454545    0.72727273
    0.54545455    0.45454545    0.81818182
    0.54545455    0.45454545    0.90909091
    0.54545455    0.54545455    0.00000000
    0.54545455    0.54545455    0.09090909
    0.54545455    0.54545455    0.18181818
    0.54545455    0.54545455    0.27272727
    0.54545455    0.54545455    0.36363636
    0.54545455    0.54545455    0.45454545
    0.54545455    0.54545455    0.54545455
    0.54545455    0.54545455    0.63636364
    0.54545455    0.54545455    0.72727273
    0.54545455    0.54545455    0.81818182
    0.54545455    0.54545455    0.90909091
    0.54545455    0.63636364    0.00000000
    0.54545455    0.63636364    0.09090909
    0.54545455    0.63636364    0.18181818
    0.54545455    0.63636364    0.27272727
    0.54545455    0.63636364    0.36363636
    0.54545455    0.63636364    0.45454545
    0.54545455    0.63636364    0.54545455
    0.54545455    0.63636364    0.63636364
    0.54545455    0.63636364    0.72727273
    0.54545455    0.63636364    0.81818182
    0.54545455    0.63636364    0.90909091
    0.54545455    0.72727273    0.00000000
    0.54545455    0.72727273    0.09090909
    0.54545455    0.72727273    0.18181818
    0.54545455    0.72727273    0.27272727
    0.54545455    0.72727273    0.36363636
    0.54545455    0.72727273    0.45454545
    0.54545455    0.72727273    0.54545455
    0.54545455    0.72727273    0.63636364
    0.54545455    0.72727273    0.72727273
    0.54545455    0.72727273    0.81818182
    0.54545455    0.72727273    0.90909091
    0.54545455    0.81818182    0.00000000
    0.54545455    0.81818182    0.09090909
    0.54545455    0.81818182    0.18181818
    0.54545455    0.81818182    0.27272727
    0.54545455    0.81818182    0.36363636
    0.54545455    0.81818182    0.45454545
    0.54545455    0.81818182    0.54545455
    0.54545455    0.81818182    0.63636364
    0.54545455    0.81818182    0.72727273
    0.54545455    0.81818182    0.81818182
    0.54545455    0.81818182    0.90909091
    0.54545455    0.90909091    0.00000000
    0.54545455    0.90909091    0.09090909
    0.54545455    0.90909091    0.18181818
    0.54545455    0.90909091    0.27272727
    0.54545455    0.90909091    0.36363636
    0.54545455    0.90909091    0.45454545
    0.54545455    0.90909091    0.54545455
    0.54545455    0.90909091    0.63636364
    0.54545455    0.90909091    0.72727273
    0.54545455    0.90909091    0.81818182
    0.54545455    0.90909091    0.90909091
    0.63636364    0.00000000    0.00000000
    0.63636364    0.00000000    0.09090909
    0.63636364    0.00000000    0.18181818
    0.63636364    0.00000000    0.27272727
    0.63636364    0.00000000    0.36363636
    0.63636364    0.00000000    0.45454545
    0.63636364    0.00000000    0.54545455
    0.63636364    0.00000000    0.63636364
    0.63636364    0.00000000    0.72727273
    0.63636364    0.00000000    0.81818182
    0.63636364    0.00000000    0.90909091
    0.63636364    0.09090909    0.00000000
    0.63636364    0.09090909    0.09090909
    0.63636364    0.09090909    0.18181818
    0.63636364    0.09090909    0.27272727
    0.63636364    0.09090909    0.36363636
    0.63636364    0.09090909    0.45454545
    0.63636364    0.09090909    0.54545455
    0.63636364    0.09090909    0.63636364
    0.63636364    0.09090909    0.72727273
    0.63636364    0.09090909    0.81818182
    0.63636364    0.09090909    0.90909091
    0.63636364    0.18181818    0.00000000
    0.63636364    0.18181818    0.09090909
    0.63636364    0.18181818    0.18181818
    0.63636364    0.18181818    0.27272727
    0.63636364    0.18181818    0.36363636
    0.63636364    0.18181818    0.45454545
    0.63636364    0.18181818    0.54545455
    0.63636364    0.18181818    0.63636364
    0.63636364    0.18181818    0.72727273
    0.63636364    0.18181818    0.81818182
    0.63636364    0.18181818    0.90909091
    0.63636364    0.27272727    0.00000000
    0.63636364    0.27272727    0.09090909
    0.63636364    0.27272727    0.18181818
    0.63636364    0.27272727    0.27272727
    0.63636364    0.27272727    0.36363636
    0.63636364    0.27272727    0.45454545
    0.63636364    0.27272727    0.54545455
    0.63636364    0.27272727    0.63636364
    0.63636364    0.27272727    0.72727273
    0.63636364    0.27272727    0.81818182
    0.63636364    0.27272727    0.90909091
    0.63636364    0.36363636    0.00000000
    0.63636364    0.36363636    0.09090909
    0.63636364    0.36363636    0.18181818
    0.63636364    0.36363636    0.27272727
    0.63636364    0.36363636    0.36363636
    0.63636364    0.36363636    0.45454545
    0.63636364    0.36363636    0.54545455
    0.63636364    0.36363636    0.63636364
    0.63636364    0.36363636    0.72727273
    0.63636364    0.36363636    0.81818182
    0.63636364    0.36363636    0.90909091
    0.63636364    0.45454545    0.00000000
    0.63636364    0.45454545    0.09090909
    0.63636364    0.45454545    0.18181818
    0.63636364    0.45454545    0.27272727
    0.63636364    0.45454545    0.36363636
    0.63636364    0.45454545    0.45454545
    0.63636364    0.45454545    0.54545455
    0.63636364    0.45454545    0.63636364
    0.63636364    0.45454545    0.72727273
    0.63636364    0.45454545    0.81818182
    0.63636364    0.45454545    0.90909091
    0.63636364    0.54545455    0.00000000
    0.63636364    0.54545455    0.09090909
    0.63636364    0.54545455    0.18181818
    0.63636364    0.54545455    0.27272727
    0.63636364    0.54545455    0.36363636
    0.63636364    0.54545455    0.45454545
    0.63636364    0.54545455    0.54545455
    0.63636364    0.54545455    0.63636364
    0.63636364    0.54545455    0.72727273
    0.63636364    0.54545455    0.81818182
    0.63636364    0.54545455    0.90909091
    0.63636364    0.63636364    0.00000000
    0.63636364    0.63636364    0.09090909
    0.63636364    0.63636364    0.18181818
    0.63636364    0.63636364    0.27272727
    0.63636364    0.63636364    0.36363636
    0.63636364    0.63636364    0.45454545
    0.63636364    0.63636364    0.54545455
    0.63636364    0.63636364    0.63636364
    0.63636364    0.63636364    0.72727273
    0.63636364    0.63636364    0.81818182
    0.63636364    0.63636364    0.90909091
    0.63636364    0.72727273    0.00000000
    0.63636364    0.72727273    0.09090909
    0.63636364    0.72727273    0.18181818
    0.63636364    0.72727273    0.27272727
    0.63636364    0.72727273    0.36363636
    0.63636364    0.72727273    0.45454545
    0.63636364    0.72727273    0.54545455
    0.63636364    0.72727273    0.63636364
    0.63636364    0.72727273    0.72727273
    0.63636364    0.72727273    0.81818182
    0.63636364    0.72727273    0.90909091
    0.63636364    0.81818182    0.00000000
    0.63636364    0.81818182    0.09090909
    0.63636364    0.81818182    0.18181818
    0.63636364    0.81818182    0.27272727
    0.63636364    0.81818182    0.36363636
    0.63636364    0.81818182    0.45454545
    0.63636364    0.81818182    0.54545455
    0.63636364    0.81818182    0.63636364
    0.63636364    0.81818182    0.72727273
    0.63636364    0.81818182    0.81818182
    0.63636364    0.81818182    0.90909091
    0.63636364    0.90909091    0.00000000
    0.63636364    0.90909091    0.09090909
    0.63636364    0.90909091    0.18181818
    0.63636364    0.90909091    0.27272727
    0.63636364    0.90909091    0.36363636
    0.63636364    0.90909091    0.45454545
    0.63636364    0.90909091    0.54545455
    0.63636364    0.90909091    0.63636364
    0.63636364    0.90909091    0.72727273
    0.63636364    0.90909091    0.81818182
    0.63636364    0.90909091    0.90909091
    0.72727273    0.00000000    0.00000000
    0.72727273    0.00000000    0.09090909
    0.72727273    0.00000000    0.18181818
    0.72727273    0.00000000    0.27272727
    0.72727273    0.00000000    0.36363636
    0.72727273    0.00000000    0.45454545
    0.72727273    0.00000000    0.54545455
    0.72727273    0.00000000    0.63636364
    0.72727273    0.00000000    0.72727273
    0.72727273    0.00000000    0.81818182
    0.72727273    0.00000000    0.90909091
    0.72727273    0.09090909    0.00000000
    0.72727273    0.09090909    0.09090909
    0.72727273    0.09090909    0.18181818
    0.72727273    0.09090909    0.27272727
    0.72727273    0.09090909    0.36363636
    0.72727273    0.09090909    0.45454545
    0.72727273    0.09090909    0.54545455
    0.72727273    0.09090909    0.63636364
    0.72727273    0.09090909    0.72727273
    0.72727273    0.09090909    0.81818182
    0.72727273    0.09090909    0.90909091
    0.72727273    0.18181818    0.00000000
    0.72727273    0.18181818    0.09090909
    0.72727273    0.18181818    0.18181818
    0.72727273    0.18181818    0.27272727
    0.72727273    0.18181818    0.36363636
    0.72727273    0.18181818    0.45454545
    0.72727273    0.18181818    0.54545455
    0.72727273    0.18181818    0.63636364
    0.72727273    0.18181818    0.72727273
    0.72727273    0.18181818    0.81818182
    0.72727273    0.18181818    0.90909091
    0.72727273    0.27272727    0.00000000
    0.72727273    0.27272727    0.09090909
    0.72727273    0.27272727    0.18181818
    0.72727273    0.27272727    0.27272727
    0.72727273    0.27272727    0.36363636
    0.72727273    0.27272727    0.45454545
    0.72727273    0.27272727    0.54545455
    0.72727273    0.27272727    0.63636364
    0.72727273    0.27272727    0.72727273
    0.72727273    0.27272727    0.81818182
    0.72727273    0.27272727    0.90909091
    0.72727273    0.36363636    0.00000000
    0.72727273    0.36363636    0.09090909
    0.72727273    0.36363636    0.18181818
    0.72727273    0.36363636    0.27272727
    0.72727273    0.36363636    0.36363636
    0.72727273    0.36363636    0.45454545
    0.72727273    0.36363636    0.54545455
    0.72727273    0.36363636    0.63636364
    0.72727273    0.36363636    0.72727273
    0.72727273    0.36363636    0.81818182
    0.72727273    0.36363636    0.90909091
    0.72727273    0.45454545    0.00000000
    0.72727273    0.45454545    0.09090909
    0.72727273    0.45454545    0.18181818
    0.72727273    0.45454545    0.27272727
    0.72727273    0.45454545    0.36363636
    0.72727273    0.45454545    0.45454545
    0.72727273    0.45454545    0.54545455
    0.72727273    0.45454545    0.63636364
    0.72727273    0.45454545    0.72727273
    0.72727273    0.45454545    0.81818182
    0.72727273    0.45454545    0.90909091
    0.72727273    0.54545455    0.00000000
    0.72727273    0.54545455    0.09090909
    0.72727273    0.54545455    0.18181818
    0.72727273    0.54545455    0.27272727
    0.72727273    0.54545455    0.36363636
    0.72727273    0.54545455    0.45454545
    0.72727273    0.54545455    0.54545455
    0.72727273    0.54545455    0.63636364
    0.72727273    0.54545455    0.72727273
    0.72727273    0.54545455    0.81818182
    0.72727273    0.54545455    0.90909091
    0.72727273    0.63636364    0.00000000
    0.72727273    0.63636364    0.09090909
    0.72727273    0.63636364    0.18181818
    0.72727273    0.63636364    0.27272727
    0.72727273    0.63636364    0.36363636
    0.72727273    0.63636364    0.45454545
    0.72727273    0.63636364    0.54545455
    0.72727273    0.63636364    0.63636364
    0.72727273    0.63636364    0.72727273
    0.72727273    0.63636364    0.81818182
    0.72727273    0.63636364    0.90909091
    0.72727273    0.72727273    0.00000000
    0.72727273    0.72727273    0.09090909
    0.72727273    0.72727273    0.18181818
    0.72727273    0.72727273    0.27272727
    0.72727273    0.72727273    0.36363636
    0.72727273    0.72727273    0.45454545
    0.72727273    0.72727273    0.54545455
    0.72727273    0.72727273    0.63636364
    0.72727273    0.72727273    0.72727273
    0.72727273    0.72727273    0.81818182
    0.72727273    0.72727273    0.90909091
    0.72727273    0.81818182    0.00000000
    0.72727273    0.81818182    0.09090909
    0.72727273    0.81818182    0.18181818
    0.72727273    0.81818182    0.27272727
    0.72727273    0.81818182    0.36363636
    0.72727273    0.81818182    0.45454545
    0.72727273    0.81818182    0.54545455
    0.72727273    0.81818182    0.63636364
    0.72727273    0.81818182    0.72727273
    0.72727273    0.81818182    0.81818182
    0.72727273    0.81818182    0.90909091
    0.72727273    0.90909091    0.00000000
    0.72727273    0.90909091    0.09090909
    0.72727273    0.90909091    0.18181818
    0.72727273    0.90909091    0.27272727
    0.72727273    0.90909091    0.36363636
    0.72727273    0.90909091    0.45454545
    0.72727273    0.90909091    0.54545455
    0.72727273    0.90909091    0.63636364
    0.72727273    0.90909091    0.72727273
    0.72727273    0.90909091    0.81818182
    0.72727273    0.90909091    0.90909091
    0.81818182    0.00000000    0.00000000
    0.81818182    0.00000000    0.09090909
    0.81818182    0.00000000    0.18181818
    0.81818182    0.00000000    0.27272727
    0.81818182    0.00000000    0.36363636
    0.81818182    0.00000000    0.45454545
    0.81818182    0.00000000    0.54545455
    0.81818182    0.00000000    0.63636364
    0.81818182    0.00000000    0.72727273
    0.81818182    0.00000000    0.81818182
    0.81818182    0.00000000    0.90909091
    0.81818182    0.09090909    0.00000000
    0.81818182    0.09090909    0.09090909
    0.81818182    0.09090909    0.18181818
    0.81818182    0.09090909    0.27272727
    0.81818182    0.09090909    0.36363636
    0.81818182    0.09090909    0.45454545
    0.81818182    0.09090909    0.54545455
    0.81818182    0.09090909    0.63636364
    0.81818182    0.09090909    0.72727273
    0.81818182    0.09090909    0.81818182
    0.81818182    0.09090909    0.90909091
    0.81818182    0.18181818    0.00000000
    0.81818182    0.18181818    0.09090909
    0.81818182    0.18181818    0.18181818
    0.81818182    0.18181818    0.27272727
    0.81818182    0.18181818    0.36363636
    0.81818182    0.18181818    0.45454545
    0.81818182    0.18181818    0.54545455
    0.81818182    0.18181818    0.63636364
    0.81818182    0.18181818    0.72727273
    0.81818182    0.18181818    0.81818182
    0.81818182    0.18181818    0.90909091
    0.81818182    0.27272727    0.00000000
    0.81818182    0.27272727    0.09090909
    0.81818182    0.27272727    0.18181818
    0.81818182    0.27272727    0.27272727
    0.81818182    0.27272727    0.36363636
    0.81818182    0.27272727    0.45454545
    0.81818182    0.27272727    0.54545455
    0.81818182    0.27272727    0.63636364
    0.81818182    0.27272727    0.72727273
    0.81818182    0.27272727    0.81818182
    0.81818182    0.27272727    0.90909091
    0.81818182    0.36363636    0.00000000
    0.81818182    0.36363636    0.09090909
    0.81818182    0.36363636    0.18181818
    0.81818182    0.36363636    0.27272727
    0.81818182    0.36363636    0.36363636
    0.81818182    0.36363636    0.45454545
    0.81818182    0.36363636    0.54545455
    0.81818182    0.36363636    0.63636364
    0.81818182    0.36363636    0.72727273
    0.81818182    0.36363636    0.81818182
    0.81818182    0.36363636    0.90909091
    0.81818182    0.45454545    0.00000000
    0.81818182    0.45454545    0.09090909
    0.81818182    0.45454545    0.18181818
    0.81818182    0.45454545    0.27272727
    0.81818182    0.45454545    0.36363636
    0.81818182    0.45454545    0.45454545
    0.81818182    0.45454545    0.54545455
    0.81818182    0.45454545    0.63636364
    0.81818182    0.45454545    0.72727273
    0.81818182    0.45454545    0.81818182
    0.81818182    0.45454545    0.90909091
    0.81818182    0.54545455    0.00000000
    0.81818182    0.54545455    0.09090909
    0.81818182    0.54545455    0.18181818
    0.81818182    0.54545455    0.27272727
    0.81818182    0.54545455    0.36363636
    0.81818182    0.54545455    0.45454545
    0.81818182    0.54545455    0.54545455
    0.81818182    0.54545455    0.63636364
    0.81818182    0.54545455    0.72727273
    0.81818182    0.54545455    0.81818182
    0.81818182    0.54545455    0.90909091
    0.81818182    0.63636364    0.00000000
    0.81818182    0.63636364    0.09090909
    0.81818182    0.63636364    0.18181818
    0.81818182    0.63636364    0.27272727
    0.81818182    0.63636364    0.36363636
    0.81818182    0.63636364    0.45454545
    0.81818182    0.63636364    0.54545455
    0.81818182    0.63636364    0.63636364
    0.81818182    0.63636364    0.72727273
    0.81818182    0.63636364    0.81818182
    0.81818182    0.63636364    0.90909091
    0.81818182    0.72727273    0.00000000
    0.81818182    0.72727273    0.09090909
    0.81818182    0.72727273    0.18181818
    0.81818182    0.72727273    0.27272727
    0.81818182    0.72727273    0.36363636
    0.81818182    0.72727273    0.45454545
    0.81818182    0.72727273    0.54545455
    0.81818182    0.72727273    0.63636364
    0.81818182    0.72727273    0.72727273
    0.81818182    0.72727273    0.81818182
    0.81818182    0.72727273    0.90909091
    0.81818182    0.81818182    0.00000000
    0.81818182    0.81818182    0.09090909
    0.81818182    0.81818182    0.18181818
    0.81818182    0.81818182    0.27272727
    0.81818182    0.81818182    0.36363636
    0.81818182    0.81818182    0.45454545
    0.81818182    0.81818182    0.54545455
    0.81818182    0.81818182    0.63636364
    0.81818182    0.81818182    0.72727273
    0.81818182    0.81818182    0.81818182
    0.81818182    0.81818182    0.90909091
    0.81818182    0.90909091    0.00000000
    0.81818182    0.90909091    0.09090909
    0.81818182    0.90909091    0.18181818
    0.81818182    0.90909091    0.27272727
    0.81818182    0.90909091    0.36363636
    0.81818182    0.90909091    0.45454545
    0.81818182    0.90909091    0.54545455
    0.81818182    0.90909091    0.63636364
    0.81818182    0.90909091    0.72727273
    0.81818182    0.90909091    0.81818182
    0.81818182    0.90909091    0.90909091
    0.90909091    0.00000000    0.00000000
    0.90909091    0.00000000    0.09090909
    0.90909091    0.00000000    0.18181818
    0.90909091    0.00000000    0.27272727
    0.90909091    0.00000000    0.36363636
    0.90909091    0.00000000    0.45454545
    0.90909091    0.00000000    0.54545455
    0.90909091    0.00000000    0.63636364
    0.90909091    0.00000000    0.72727273
    0.90909091    0.00000000    0.81818182
    0.90909091    0.00000000    0.90909091
    0.90909091    0.09090909    0.00000000
    0.90909091    0.09090909    0.09090909
    0.90909091    0.09090909    0.18181818
    0.90909091    0.09090909    0.27272727
    0.90909091    0.09090909    0.36363636
    0.90909091    0.09090909    0.45454545
    0.90909091    0.09090909    0.54545455
    0.90909091    0.09090909    0.63636364
    0.90909091    0.09090909    0.72727273
    0.90909091    0.09090909    0.81818182
    0.90909091    0.09090909    0.90909091
    0.90909091    0.18181818    0.00000000
    0.90909091    0.18181818    0.09090909
    0.90909091    0.18181818    0.18181818
    0.90909091    0.18181818    0.27272727
    0.90909091    0.18181818    0.36363636
    0.90909091    0.18181818    0.45454545
    0.90909091    0.18181818    0.54545455
    0.90909091    0.18181818    0.63636364
    0.90909091    0.18181818    0.72727273
    0.90909091    0.18181818    0.81818182
    0.90909091    0.18181818    0.90909091
    0.90909091    0.27272727    0.00000000
    0.90909091    0.27272727    0.09090909
    0.90909091    0.27272727    0.18181818
    0.90909091    0.27272727    0.27272727
    0.90909091    0.27272727    0.36363636
    0.90909091    0.27272727    0.45454545
    0.90909091    0.27272727    0.54545455
    0.90909091    0.27272727    0.63636364
    0.90909091    0.27272727    0.72727273
    0.90909091    0.27272727    0.81818182
    0.90909091    0.27272727    0.90909091
    0.90909091    0.36363636    0.00000000
    0.90909091    0.36363636    0.09090909
    0.90909091    0.36363636    0.18181818
    0.90909091    0.36363636    0.27272727
    0.90909091    0.36363636    0.36363636
    0.90909091    0.36363636    0.45454545
    0.90909091    0.36363636    0.54545455
    0.90909091    0.36363636    0.63636364
    0.90909091    0.36363636    0.72727273
    0.90909091    0.36363636    0.81818182
    0.90909091    0.36363636    0.90909091
    0.90909091    0.45454545    0.00000000
    0.90909091    0.45454545    0.09090909
    0.90909091    0.45454545    0.18181818
    0.90909091    0.45454545    0.27272727
    0.90909091    0.45454545    0.36363636
    0.90909091    0.45454545    0.45454545
    0.90909091    0.45454545    0.54545455
    0.90909091    0.45454545    0.63636364
    0.90909091    0.45454545    0.72727273
    0.90909091    0.45454545    0.81818182
    0.90909091    0.45454545    0.90909091
    0.90909091    0.54545455    0.00000000
    0.90909091    0.54545455    0.09090909
    0.90909091    0.54545455    0.18181818
    0.90909091    0.54545455    0.27272727
    0.90909091    0.54545455    0.36363636
    0.90909091    0.54545455    0.45454545
    0.90909091    0.54545455    0.54545455
    0.90909091    0.54545455    0.63636364
    0.90909091    0.54545455    0.72727273
    0.90909091    0.54545455    0.81818182
    0.90909091    0.54545455    0.90909091
    0.90909091    0.63636364    0.00000000
    0.90909091    0.63636364    0.09090909
    0.90909091    0.63636364    0.18181818
    0.90909091    0.63636364    0.27272727
    0.90909091    0.63636364    0.36363636
    0.90909091    0.63636364    0.45454545
    0.90909091    0.63636364    0.54545455
    0.90909091    0.63636364    0.63636364
    0.90909091    0.63636364    0.72727273
    0.90909091    0.63636364    0.81818182
    0.90909091    0.63636364    0.90909091
    0.90909091    0.72727273    0.00000000
    0.90909091    0.72727273    0.09090909
    0.90909091    0.72727273    0.18181818
    0.90909091    0.72727273    0.27272727
    0.90909091    0.72727273    0.36363636
    0.90909091    0.72727273    0.45454545
    0.90909091    0.72727273    0.54545455
    0.90909091    0.72727273    0.63636364
    0.90909091    0.72727273    0.72727273
    0.90909091    0.72727273    0.81818182
    0.90909091    0.72727273    0.90909091
    0.90909091    0.81818182    0.00000000
    0.90909091    0.81818182    0.09090909
    0.90909091    0.81818182    0.18181818
    0.90909091    0.81818182    0.27272727
    0.90909091    0.81818182    0.36363636
    0.90909091    0.81818182    0.45454545
    0.90909091    0.81818182    0.54545455
    0.90909091    0.81818182    0.63636364
    0.90909091    0.81818182    0.72727273
    0.90909091    0.81818182    0.81818182
    0.90909091    0.81818182    0.90909091
    0.90909091    0.90909091    0.00000000
    0.90909091    0.90909091    0.09090909
    0.90909091    0.90909091    0.18181818
    0.90909091    0.90909091    0.27272727
    0.90909091    0.90909091    0.36363636
    0.90909091    0.90909091    0.45454545
    0.90909091    0.90909091    0.54545455
    0.90909091    0.90909091    0.63636364
    0.90909091    0.90909091    0.72727273
    0.90909091    0.90909091    0.81818182
    0.90909091    0.90909091    0.90909091
end kpoints

begin projections
     0
end projections

begin auto_projections
     8
     0
end auto_projections

begin nnkpts
   8
       1       2      0   0   0
       1      12      0   0   0
       1     122      0   0   0
       1     134      0   0   0
       1      11      0   0  -1
       1     111      0  -1   0
       1    1211     -1   0   0
       1    1331     -1  -1  -1
       2       3      0   0   0
       2      13      0   0   0
       2     123      0   0   0
       2     135      0   0   0
       2       1      0   0   0
       2     112      0  -1   0
       2    1212     -1   0   0
       2    1321     -1  -1   0
       3       4      0   0   0
       3      14      0   0   0
       3     124      0   0   0
       3     136      0   0   0
       3       2      0   0   0
       3     113      0  -1   0
       3    1213     -1   0   0
       3    1322     -1  -1   0
       4       5      0   0   0
       4      15      0   0   0
       4     125      0   0   0
       4     137      0   0   0
       4       3      0   0   0
       4     114      0  -1   0
       4    1214     -1   0   0
       4    1323     -1  -1   0
       5       6      0   0   0
       5      16      0   0   0
       5     126      0   0   0
       5     138      0   0   0
       5       4      0   0   0
       5     115      0  -1   0
       5    1215     -1   0   0
       5    1324     -1  -1   0
       6       7      0   0   0
       6      17      0   0   0
       6     127      0   0   0
       6     139      0   0   0
       6       5      0   0   0
       6     116      0  -1   0
       6    1216     -1   0   0
       6    1325     -1  -1   0
       7       8      0   0   0
       7      18      0   0   0
       7     128      0   0   0
       7     140      0   0   0
       7       6      0   0   0
       7     117      0  -1   0
       7    1217     -1   0   0
       7    1326     -1  -1   0
       8       9      0   0   0
       8      19      0   0   0
       8     129      0   0   0
       8     141      0   0   0
       8       7      0   0   0
       8     118      0  -1   0
       8    1218     -1   0   0
       8    1327     -1  -1   0
       9      10      0   0   0
       9      20      0   0   0
       9     130      0   0   0
       9     142      0   0   0
       9       8      0   0   0
       9     119      0  -1   0
       9    1219     -1   0   0
       9    1328     -1  -1   0
      10      11      0   0   0
      10      21      0   0   0
      10     131      0   0   0
      10     143      0   0   0
      10       9      0   0   0
      10     120      0  -1   0
      10    1220     -1   0   0
      10    1329     -1  -1   0
      11       1      0   0   1
      11      22      0   0   0
      11     132      0   0   0
      11     133      0   0   1
      11      10      0   0   0
      11     121      0  -1   0
      11    1221     -1   0   0
      11    1330     -1  -1   0
      12      13      0   0   0
      12      23      0   0   0
      12     133      0   0   0
      12     145      0   0   0
      12      22      0   0  -1
      12       1      0   0   0
      12    1222     -1   0   0
      12    1221     -1   0  -1
      13      14      0   0   0
      13      24      0   0   0
      13     134      0   0   0
      13     146      0   0   0
      13      12      0   0   0
      13       2      0   0   0
      13    1223     -1   0   0
      13    1211     -1   0   0
      14      15      0   0   0
      14      25      0   0   0
      14     135      0   0   0
      14     147      0   0   0
      14      13      0   0   0
      14       3      0   0   0
      14    1224     -1   0   0
      14    1212     -1   0   0
      15      16      0   0   0
      15      26      0   0   0
      15     136      0   0   0
      15     148      0   0   0
      15      14      0   0   0
      15       4      0   0   0
      15    1225     -1   0   0
      15    1213     -1   0   0
      16      17      0   0   0
      16      27      0   0   0
      16     137      0   0   0
      16     149      0   0   0
      16      15      0   0   0
      16       5      0   0   0
      16    1226     -1   0   0
      16    1214     -1   0   0
      17      18      0   0   0
      17      28      0   0   0
      17     138      0   0   0
      17     150      0   0   0
      17      16      0   0   0
      17       6      0   0   0
      17    1227     -1   0   0
      17    1215     -1   0   0
      18      19      0   0   0
      18      29      0   0   0
      18     139      0   0   0
      18     151      0   0   0
      18      17      0   0   0
      18       7      0   0   0
      18    1228     -1   0   0
      18    1216     -1   0   0
      19      20      0   0   0
      19      30      0   0   0
      19     140      0   0   0
      19     152      0   0   0
      19      18      0   0   0
      19       8      0   0   0
      19    1229     -1   0   0
      19    1217     -1   0   0
      20      21      0   0   0
      20      31      0   0   0
      20     141      0   0   0
      20     153      0   0   0
      20      19      0   0   0
      20       9      0   0   0
      20    1230     -1   0   0
      20    1218     -1   0   0
      21      22      0   0   0
      21      32      0   0   0
      21     142      0   0   0
      21     154      0   0   0
      21      20      0   0   0
      21      10      0   0   0
      21    1231     -1   0   0
      21    1219     -1   0   0
      22      12      0   0   1
      22      33      0   0   0
      22     143      0   0   0
      22     144      0   0   1
      22      21      0   0   0
      22      11      0   0   0
      22    1232     -1   0   0
      22    1220     -1   0   0
      23      24      0   0   0
      23      34      0   0   0
      23     144      0   0   0
      23     156      0   0   0
      23      33      0   0  -1
      23      12      0   0   0
      23    1233     -1   0   0
      23    1232     -1   0  -1
      24      25      0   0   0
      24      35      0   0   0
      24     145      0   0   0
      24     157      0   0   0
      24      23      0   0   0
      24      13      0   0   0
      24    1234     -1   0   0
      24    1222     -1   0   0
      25      26      0   0   0
      25      36      0   0   0
      25     146      0   0   0
      25     158      0   0   0
      25      24      0   0   0
      25      14      0   0   0
      25    1235     -1   0   0
      25    1223     -1   0   0
      26      27      0   0   0
      26      37      0   0   0
      26     147      0   0   0
      26     159      0   0   0
      26      25      0   0   0
      26      15      0   0   0
      26    1236     -1   0   0
      26    1224     -1   0   0
      27      28      0   0   0
      27      38      0   0   0
      27     148      0   0   0
      27     160      0   0   0
      27      26      0   0   0
      27      16      0   0   0
      27    1237     -1   0   0
      27    1225     -1   0   0
      28      29      0   0   0
      28      39      0   0   0
      28     149      0   0   0
      28     161      0   0   0
      28      27      0   0   0
      28      17      0   0   0
      28    1238     -1   0   0
      28    1226     -1   0   0
      29      30      0   0   0
      29      40      0   0   0
      29     150      0   0   0
      29     162      0   0   0
      29      28      0   0   0
      29      18      0   0   0
      29    1239     -1   0   0
      29    1227     -1   0   0
      30      31      0   0   0
      30      41      0   0   0
      30     151      0   0   0
      30     163      0   0   0
      30      29      0   0   0
      30      19      0   0   0
      30    1240     -1   0   0
      30    1228     -1   0   0
      31      32      0   0   0
      31      42      0   0   0
      31     152      0   0   0
      31     164      0   0   0
      31      30      0   0   0
      31      20      0   0   0
      31    1241     -1   0   0
      31    1229     -1   0   0
      32      33      0   0   0
      32      43      0   0   0
      32     153      0   0   0
      32     165      0   0   0
      32      31      0   0   0
      32      21      0   0   0
      32    1242     -1   0   0
      32    1230     -1   0   0
      33      23      0   0   1
      33      44      0   0   0
      33     154      0   0   0
      33     155      0   0   1
      33      32      0   0   0
      33      22      0   0   0
      33    1243     -1   0   0
      33    1231     -1   0   0
      34      35      0   0   0
      34      45      0   0   0
      34     155      0   0   0
      34     167      0   0   0
      34      44      0   0  -1
      34      23      0   0   0
      34    1244     -1   0   0
      34    1243     -1   0  -1
      35      36      0   0   0
      35      46      0   0   0
      35     156      0   0   0
      35     168      0   0   0
      35      34      0   0   0
      35      24      0   0   0
      35    1245     -1   0   0
      35    1233     -1   0   0
      36      37      0   0   0
      36      47      0   0   0
      36     157      0   0   0
      36     169      0   0   0
      36      35      0   0   0
      36      25      0   0   0
      36    1246     -1   0   0
      36    1234     -1   0   0
      37      38      0   0   0
      37      48      0   0   0
      37     158      0   0   0
      37     170      0   0   0
      37      36      0   0   0
      37      26      0   0   0
      37    1247     -1   0   0
      37    1235     -1   0   0
      38      39      0   0   0
      38      49      0   0   0
      38     159      0   0   0
      38     171      0   0   0
      38      37      0   0   0
      38      27      0   0   0
      38    1248     -1   0   0
      38    1236     -1   0   0
      39      40      0   0   0
      39      50      0   0   0
      39     160      0   0   0
      39     172      0   0   0
      39      38      0   0   0
      39      28      0   0   0
      39    1249     -1   0   0
      39    1237     -1   0   0
      40      41      0   0   0
      40      51      0   0   0
      40     161      0   0   0
      40     173      0   0   0
      40      39      0   0   0
      40      29      0   0   0
      40    1250     -1   0   0
      40    1238     -1   0   0
      41      42      0   0   0
      41      52      0   0   0
      41     162      0   0   0
      41     174      0   0   0
      41      40      0   0   0
      41      30      0   0   0
      41    1251     -1   0   0
      41    1239     -1   0   0
      42      43      0   0   0
      42      53      0   0   0
      42     163      0   0   0
      42     175      0   0   0
      42      41      0   0   0
      42      31      0   0   0
      42    1252     -1   0   0
      42    1240     -1   0   0
      43      44      0   0   0
      43      54      0   0   0
      43     164      0   0   0
      43     176      0   0   0
      43      42      0   0   0
      43      32      0   0   0
      43    1253     -1   0   0
      43    1241     -1   0   0
      44      34      0   0   1
      44      55      0   0   0
      44     165      0   0   0
      44     166      0   0   1
      44      43      0   0   0
      44      33      0   0   0
      44    1254     -1   0   0
      44    1242     -1   0   0
      45      46      0   0   0
      45      56      0   0   0
      45     166      0   0   0
      45     178      0   0   0
      45      55      0   0  -1
      45      34      0   0   0
      45    1255     -1   0   0
      45    1254     -1   0  -1
      46      47      0   0   0
      46      57      0   0   0
      46     167      0   0   0
      46     179      0   0   0
      46      45      0   0   0
      46      35      0   0   0
      46    1256     -1   0   0
      46    1244     -1   0   0
      47      48      0   0   0
      47      58      0   0   0
      47     168      0   0   0
      47     180      0   0   0
      47      46      0   0   0
      47      36      0   0   0
      47    1257     -1   0   0
      47    1245     -1   0   0
      48      49      0   0   0
      48      59      0   0   0
      48     169      0   0   0
      48     181      0   0   0
      48      47      0   0   0
      48      37      0   0   0
      48    1258     -1   0   0
      48    1246     -1   0   0
      49      50      0   0   0
      49      60      0   0   0
      49     170      0   0   0
      49     182      0   0   0
      49      48      0   0   0
      49      38      0   0   0
      49    1259     -1   0   0
      49    1247     -1   0   0
      50      51      0   0   0
      50      61      0   0   0
      50     171      0   0   0
      50     183      0   0   0
      50      49      0   0   0
      50      39      0   0   0
      50    1260     -1   0   0
      50    1248     -1   0   0
      51      52      0   0   0
      51      62      0   0   0
      51     172      0   0   0
      51     184      0   0   0
      51      50      0   0   0
      51      40      0   0   0
      51    1261     -1   0   0
      51    1249     -1   0   0
      52      53      0   0   0
      52      63      0   0   0
      52     173      0   0   0
      52     185      0   0   0
      52      51      0   0   0
      52      41      0   0   0
      52    1262     -1   0   0
      52    1250     -1   0   0
      53      54      0   0   0
      53      64      0   0   0
      53     174      0   0   0
      53     186      0   0   0
      53      52      0   0   0
      53      42      0   0   0
      53    1263     -1   0   0
      53    1251     -1   0   0
      54      55      0   0   0
      54      65      0   0   0
      54     175      0   0   0
      54     187      0   0   0
      54      53      0   0   0
      54      43      0   0   0
      54    1264     -1   0   0
      54    1252     -1   0   0
      55      45      0   0   1
      55      66      0   0   0
      55     176      0   0   0
      55     177      0   0   1
      55      54      0   0   0
      55      44      0   0   0
      55    1265     -1   0   0
      55    1253     -1   0   0
      56      57      0   0   0
      56      67      0   0   0
      56     177      0   0   0
      56     189      0   0   0
      56      66      0   0  -1
      56      45      0   0   0
      56    1266     -1   0   0
      56    1265     -1   0  -1
      57      58      0   0   0
      57      68      0   0   0
      57     178      0   0   0
      57     190      0   0   0
      57      56      0   0   0
      57      46      0   0   0
      57    1267     -1   0   0
      57    1255     -1   0   0
      58      59      0   0   0
      58      69      0   0   0
      58     179      0   0   0
      58     191      0   0   0
      58      57      0   0   0
      58      47      0   0   0
      58    1268     -1   0   0
      58    1256     -1   0   0
      59      60      0   0   0
      59      70      0   0   0
      59     180      0   0   0
      59     192      0   0   0
      59      58      0   0   0
      59      48      0   0   0
      59    1269     -1   0   0
      59    1257     -1   0   0
      60      61      0   0   0
      60      71      0   0   0
      60     181      0   0   0
      60     193      0   0   0
      60      59      0   0   0
      60      49      0   0   0
      60    1270     -1   0   0
      60    1258     -1   0   0
      61      62      0   0   0
      61      72      0   0   0
      61     182      0   0   0
      61     194      0   0   0
      61      60      0   0   0
      61      50      0   0   0
      61    1271     -1   0   0
      61    1259     -1   0   0
      62      63      0   0   0
      62      73      0   0   0
      62     183      0   0   0
      62     195      0   0   0
      62      61      0   0   0
      62      51      0   0   0
      62    1272     -1   0   0
      62    1260     -1   0   0
      63      64      0   0   0
      63      74      0   0   0
      63     184      0   0   0
      63     196      0   0   0
      63      62      0   0   0
      63      52      0   0   0
      63    1273     -1   0   0
      63    1261     -1   0   0
      64      65      0   0   0
      64      75      0   0   0
      64     185      0   0   0
      64     197      0   0   0
      64      63      0   0   0
      64      53      0   0   0
      64    1274     -1   0   0
      64    1262     -1   0   0
      65      66      0   0   0
      65      76      0   0   0
      65     186      0   0   0
      65     198      0   0   0
      65      64      0   0   0
      65      54      0   0   0
      65    1275     -1   0   0
      65    1263     -1   0   0
      66      56      0   0   1
      66      77      0   0   0
      66     187      0   0   0
      66     188      0   0   1
      66      65      0   0   0
      66      55      0   0   0
      66    1276     -1   0   0
      66    1264     -1   0   0
      67      68      0   0   0
      67      78      0   0   0
      67     188      0   0   0
      67     200      0   0   0
      67      77      0   0  -1
      67      56      0   0   0
      67    1277     -1   0   0
      67    1276     -1   0  -1
      68      69      0   0   0
      68      79      0   0   0
      68     189      0   0   0
      68     201      0   0   0
      68      67      0   0   0
      68      57      0   0   0
      68    1278     -1   0   0
      68    1266     -1   0   0
      69      70      0   0   0
      69      80      0   0   0
      69     190      0   0   0
      69     202      0   0   0
      69      68      0   0   0
      69      58      0   0   0
      69    1279     -1   0   0
      69    1267     -1   0   0
      70      71      0   0   0
      70      81      0   0   0
      70     191      0   0   0
      70     203      0   0   0
      70      69      0   0   0
      70      59      0   0   0
      70    1280     -1   0   0
      70    1268     -1   0   0
      71      72      0   0   0
      71      82      0   0   0
      71     192      0   0   0
      71     204      0   0   0
      71      70      0   0   0
      71      60      0   0   0
      71    1281     -1   0   0
      71    1269     -1   0   0
      72      73      0   0   0
      72      83      0   0   0
      72     193      0   0   0
      72     205      0   0   0
      72      71      0   0   0
      72      61      0   0   0
      72    1282     -1   0   0
      72    1270     -1   0   0
      73      74      0   0   0
      73      84      0   0   0
      73     194      0   0   0
      73     206      0   0   0
      73      72      0   0   0
      73      62      0   0   0
      73    1283     -1   0   0
      73    1271     -1   0   0
      74      75      0   0   0
      74      85      0   0   0
      74     195      0   0   0
      74     207      0   0   0
      74      73      0   0   0
      74      63      0   0   0
      74    1284     -1   0   0
      74    1272     -1   0   0
      75      76      0   0   0
      75      86      0   0   0
      75     196      0   0   0
      75     208      0   0   0
      75      74      0   0   0
      75      64      0   0   0
      75    1285     -1   0   0
      75    1273     -1   0   0
      76      77      0   0   0
      76      87      0   0   0
      76     197      0   0   0
      76     209      0   0   0
      76      75      0   0   0
      76      65      0   0   0
      76    1286     -1   0   0
      76    1274     -1   0   0
      77      67      0   0   1
      77      88      0   0   0
      77     198      0   0   0
      77     199      0   0   1
      77      76      0   0   0
      77      66      0   0   0
      77    1287     -1   0   0
      77    1275     -1   0   0
      78      79      0   0   0
      78      89      0   0   0
      78     199      0   0   0
      78     211      0   0   0
      78      88      0   0  -1
      78      67      0   0   0
      78    1288     -1   0   0
      78    1287     -1   0  -1
      79      80      0   0   0
      79      90      0   0   0
      79     200      0   0   0
      79     212      0   0   0
      79      78      0   0   0
      79      68      0   0   0
      79    1289     -1   0   0
      79    1277     -1   0   0
      80      81      0   0   0
      80      91      0   0   0
      80     201      0   0   0
      80     213      0   0   0
      80      79      0   0   0
      80      69      0   0   0
      80    1290     -1   0   0
      80    1278     -1   0   0
      81      82      0   0   0
      81      92      0   0   0
      81     202      0   0   0
      81     214      0   0   0
      81      80      0   0   0
      81      70      0   0   0
      81    1291     -1   0   0
      81    1279     -1   0   0
      82      83      0   0   0
      82      93      0   0   0
      82     203      0   0   0
      82     215      0   0   0
      82      81      0   0   0
      82      71      0   0   0
      82    1292     -1   0   0
      82    1280     -1   0   0
      83      84      0   0   0
      83      94      0   0   0
      83     204      0   0   0
      83     216      0   0   0
      83      82      0   0   0
      83      72      0   0   0
      83    1293     -1   0   0
      83    1281     -1   0   0
      84      85      0   0   0
      84      95      0   0   0
      84     205      0   0   0
      84     217      0   0   0
      84      83      0   0   0
      84      73      0   0   0
      84    1294     -1   0   0
      84    1282     -1   0   0
      85      86      0   0   0
      85      96      0   0   0
      85     206      0   0   0
      85     218      0   0   0
      85      84      0   0   0
      85      74      0   0   0
      85    1295     -1   0   0
      85    1283     -1   0   0
      86      87      0   0   0
      86      97      0   0   0
      86     207      0   0   0
      86     219      0   0   0
      86      85      0   0   0
      86      75      0   0   0
      86    1296     -1   0   0
      86    1284     -1   0   0
      87      88      0   0   0
      87      98      0   0   0
      87     208      0   0   0
      87     220      0   0   0
      87      86      0   0   0
      87      76      0   0   0
      87    1297     -1   0   0
[...]
    1254    1265      0   0   0
    1254      44      1   0   0
    1254      45      1   0   1
    1254    1253      0   0   0
    1254    1243      0   0   0
    1254    1133      0   0   0
    1254    1121      0   0   0
    1255    1256      0   0   0
    1255    1266      0   0   0
    1255      45      1   0   0
    1255      57      1   0   0
    1255    1265      0   0  -1
    1255    1244      0   0   0
    1255    1134      0   0   0
    1255    1133      0   0  -1
    1256    1257      0   0   0
    1256    1267      0   0   0
    1256      46      1   0   0
    1256      58      1   0   0
    1256    1255      0   0   0
    1256    1245      0   0   0
    1256    1135      0   0   0
    1256    1123      0   0   0
    1257    1258      0   0   0
    1257    1268      0   0   0
    1257      47      1   0   0
    1257      59      1   0   0
    1257    1256      0   0   0
    1257    1246      0   0   0
    1257    1136      0   0   0
    1257    1124      0   0   0
    1258    1259      0   0   0
    1258    1269      0   0   0
    1258      48      1   0   0
    1258      60      1   0   0
    1258    1257      0   0   0
    1258    1247      0   0   0
    1258    1137      0   0   0
    1258    1125      0   0   0
    1259    1260      0   0   0
    1259    1270      0   0   0
    1259      49      1   0   0
    1259      61      1   0   0
    1259    1258      0   0   0
    1259    1248      0   0   0
    1259    1138      0   0   0
    1259    1126      0   0   0
    1260    1261      0   0   0
    1260    1271      0   0   0
    1260      50      1   0   0
    1260      62      1   0   0
    1260    1259      0   0   0
    1260    1249      0   0   0
    1260    1139      0   0   0
    1260    1127      0   0   0
    1261    1262      0   0   0
    1261    1272      0   0   0
    1261      51      1   0   0
    1261      63      1   0   0
    1261    1260      0   0   0
    1261    1250      0   0   0
    1261    1140      0   0   0
    1261    1128      0   0   0
    1262    1263      0   0   0
    1262    1273      0   0   0
    1262      52      1   0   0
    1262      64      1   0   0
    1262    1261      0   0   0
    1262    1251      0   0   0
    1262    1141      0   0   0
    1262    1129      0   0   0
    1263    1264      0   0   0
    1263    1274      0   0   0
    1263      53      1   0   0
    1263      65      1   0   0
    1263    1262      0   0   0
    1263    1252      0   0   0
    1263    1142      0   0   0
    1263    1130      0   0   0
    1264    1265      0   0   0
    1264    1275      0   0   0
    1264      54      1   0   0
    1264      66      1   0   0
    1264    1263      0   0   0
    1264    1253      0   0   0
    1264    1143      0   0   0
    1264    1131      0   0   0
    1265    1255      0   0   1
    1265    1276      0   0   0
    1265      55      1   0   0
    1265      56      1   0   1
    1265    1264      0   0   0
    1265    1254      0   0   0
    1265    1144      0   0   0
    1265    1132      0   0   0
    1266    1267      0   0   0
    1266    1277      0   0   0
    1266      56      1   0   0
    1266      68      1   0   0
    1266    1276      0   0  -1
    1266    1255      0   0   0
    1266    1145      0   0   0
    1266    1144      0   0  -1
    1267    1268      0   0   0
    1267    1278      0   0   0
    1267      57      1   0   0
    1267      69      1   0   0
    1267    1266      0   0   0
    1267    1256      0   0   0
    1267    1146      0   0   0
    1267    1134      0   0   0
    1268    1269      0   0   0
    1268    1279      0   0   0
    1268      58      1   0   0
    1268      70      1   0   0
    1268    1267      0   0   0
    1268    1257      0   0   0
    1268    1147      0   0   0
    1268    1135      0   0   0
    1269    1270      0   0   0
    1269    1280      0   0   0
    1269      59      1   0   0
    1269      71      1   0   0
    1269    1268      0   0   0
    1269    1258      0   0   0
    1269    1148      0   0   0
    1269    1136      0   0   0
    1270    1271      0   0   0
    1270    1281      0   0   0
    1270      60      1   0   0
    1270      72      1   0   0
    1270    1269      0   0   0
    1270    1259      0   0   0
    1270    1149      0   0   0
    1270    1137      0   0   0
    1271    1272      0   0   0
    1271    1282      0   0   0
    1271      61      1   0   0
    1271      73      1   0   0
    1271    1270      0   0   0
    1271    1260      0   0   0
    1271    1150      0   0   0
    1271    1138      0   0   0
    1272    1273      0   0   0
    1272    1283      0   0   0
    1272      62      1   0   0
    1272      74      1   0   0
    1272    1271      0   0   0
    1272    1261      0   0   0
    1272    1151      0   0   0
    1272    1139      0   0   0
    1273    1274      0   0   0
    1273    1284      0   0   0
    1273      63      1   0   0
    1273      75      1   0   0
    1273    1272      0   0   0
    1273    1262      0   0   0
    1273    1152      0   0   0
    1273    1140      0   0   0
    1274    1275      0   0   0
    1274    1285      0   0   0
    1274      64      1   0   0
    1274      76      1   0   0
    1274    1273      0   0   0
    1274    1263      0   0   0
    1274    1153      0   0   0
    1274    1141      0   0   0
    1275    1276      0   0   0
    1275    1286      0   0   0
    1275      65      1   0   0
    1275      77      1   0   0
    1275    1274      0   0   0
    1275    1264      0   0   0
    1275    1154      0   0   0
    1275    1142      0   0   0
    1276    1266      0   0   1
    1276    1287      0   0   0
    1276      66      1   0   0
    1276      67      1   0   1
    1276    1275      0   0   0
    1276    1265      0   0   0
    1276    1155      0   0   0
    1276    1143      0   0   0
    1277    1278      0   0   0
    1277    1288      0   0   0
    1277      67      1   0   0
    1277      79      1   0   0
    1277    1287      0   0  -1
    1277    1266      0   0   0
    1277    1156      0   0   0
    1277    1155      0   0  -1
    1278    1279      0   0   0
    1278    1289      0   0   0
    1278      68      1   0   0
    1278      80      1   0   0
    1278    1277      0   0   0
    1278    1267      0   0   0
    1278    1157      0   0   0
    1278    1145      0   0   0
    1279    1280      0   0   0
    1279    1290      0   0   0
    1279      69      1   0   0
    1279      81      1   0   0
    1279    1278      0   0   0
    1279    1268      0   0   0
    1279    1158      0   0   0
    1279    1146      0   0   0
    1280    1281      0   0   0
    1280    1291      0   0   0
    1280      70      1   0   0
    1280      82      1   0   0
    1280    1279      0   0   0
    1280    1269      0   0   0
    1280    1159      0   0   0
    1280    1147      0   0   0
    1281    1282      0   0   0
    1281    1292      0   0   0
    1281      71      1   0   0
    1281      83      1   0   0
    1281    1280      0   0   0
    1281    1270      0   0   0
    1281    1160      0   0   0
    1281    1148      0   0   0
    1282    1283      0   0   0
    1282    1293      0   0   0
    1282      72      1   0   0
    1282      84      1   0   0
    1282    1281      0   0   0
    1282    1271      0   0   0
    1282    1161      0   0   0
    1282    1149      0   0   0
    1283    1284      0   0   0
    1283    1294      0   0   0
    1283      73      1   0   0
    1283      85      1   0   0
    1283    1282      0   0   0
    1283    1272      0   0   0
    1283    1162      0   0   0
    1283    1150      0   0   0
    1284    1285      0   0   0
    1284    1295      0   0   0
    1284      74      1   0   0
    1284      86      1   0   0
    1284    1283      0   0   0
    1284    1273      0   0   0
    1284    1163      0   0   0
    1284    1151      0   0   0
    1285    1286      0   0   0
    1285    1296      0   0   0
    1285      75      1   0   0
    1285      87      1   0   0
    1285    1284      0   0   0
    1285    1274      0   0   0
    1285    1164      0   0   0
    1285    1152      0   0   0
    1286    1287      0   0   0
    1286    1297      0   0   0
    1286      76      1   0   0
    1286      88      1   0   0
    1286    1285      0   0   0
    1286    1275      0   0   0
    1286    1165      0   0   0
    1286    1153      0   0   0
    1287    1277      0   0   1
    1287    1298      0   0   0
    1287      77      1   0   0
    1287      78      1   0   1
    1287    1286      0   0   0
    1287    1276      0   0   0
    1287    1166      0   0   0
    1287    1154      0   0   0
    1288    1289      0   0   0
    1288    1299      0   0   0
    1288      78      1   0   0
    1288      90      1   0   0
    1288    1298      0   0  -1
    1288    1277      0   0   0
    1288    1167      0   0   0
    1288    1166      0   0  -1
    1289    1290      0   0   0
    1289    1300      0   0   0
    1289      79      1   0   0
    1289      91      1   0   0
    1289    1288      0   0   0
    1289    1278      0   0   0
    1289    1168      0   0   0
    1289    1156      0   0   0
    1290    1291      0   0   0
    1290    1301      0   0   0
    1290      80      1   0   0
    1290      92      1   0   0
    1290    1289      0   0   0
    1290    1279      0   0   0
    1290    1169      0   0   0
    1290    1157      0   0   0
    1291    1292      0   0   0
    1291    1302      0   0   0
    1291      81      1   0   0
    1291      93      1   0   0
    1291    1290      0   0   0
    1291    1280      0   0   0
    1291    1170      0   0   0
    1291    1158      0   0   0
    1292    1293      0   0   0
    1292    1303      0   0   0
    1292      82      1   0   0
    1292      94      1   0   0
    1292    1291      0   0   0
    1292    1281      0   0   0
    1292    1171      0   0   0
    1292    1159      0   0   0
    1293    1294      0   0   0
    1293    1304      0   0   0
    1293      83      1   0   0
    1293      95      1   0   0
    1293    1292      0   0   0
    1293    1282      0   0   0
    1293    1172      0   0   0
    1293    1160      0   0   0
    1294    1295      0   0   0
    1294    1305      0   0   0
    1294      84      1   0   0
    1294      96      1   0   0
    1294    1293      0   0   0
    1294    1283      0   0   0
    1294    1173      0   0   0
    1294    1161      0   0   0
    1295    1296      0   0   0
    1295    1306      0   0   0
    1295      85      1   0   0
    1295      97      1   0   0
    1295    1294      0   0   0
    1295    1284      0   0   0
    1295    1174      0   0   0
    1295    1162      0   0   0
    1296    1297      0   0   0
    1296    1307      0   0   0
    1296      86      1   0   0
    1296      98      1   0   0
    1296    1295      0   0   0
    1296    1285      0   0   0
    1296    1175      0   0   0
    1296    1163      0   0   0
    1297    1298      0   0   0
    1297    1308      0   0   0
    1297      87      1   0   0
    1297      99      1   0   0
    1297    1296      0   0   0
    1297    1286      0   0   0
    1297    1176      0   0   0
    1297    1164      0   0   0
    1298    1288      0   0   1
    1298    1309      0   0   0
    1298      88      1   0   0
    1298      89      1   0   1
    1298    1297      0   0   0
    1298    1287      0   0   0
    1298    1177      0   0   0
    1298    1165      0   0   0
    1299    1300      0   0   0
    1299    1310      0   0   0
    1299      89      1   0   0
    1299     101      1   0   0
    1299    1309      0   0  -1
    1299    1288      0   0   0
    1299    1178      0   0   0
    1299    1177      0   0  -1
    1300    1301      0   0   0
    1300    1311      0   0   0
    1300      90      1   0   0
    1300     102      1   0   0
    1300    1299      0   0   0
    1300    1289      0   0   0
    1300    1179      0   0   0
    1300    1167      0   0   0
    1301    1302      0   0   0
    1301    1312      0   0   0
    1301      91      1   0   0
    1301     103      1   0   0
    1301    1300      0   0   0
    1301    1290      0   0   0
    1301    1180      0   0   0
    1301    1168      0   0   0
    1302    1303      0   0   0
    1302    1313      0   0   0
    1302      92      1   0   0
    1302     104      1   0   0
    1302    1301      0   0   0
    1302    1291      0   0   0
    1302    1181      0   0   0
    1302    1169      0   0   0
    1303    1304      0   0   0
    1303    1314      0   0   0
    1303      93      1   0   0
    1303     105      1   0   0
    1303    1302      0   0   0
    1303    1292      0   0   0
    1303    1182      0   0   0
    1303    1170      0   0   0
    1304    1305      0   0   0
    1304    1315      0   0   0
    1304      94      1   0   0
    1304     106      1   0   0
    1304    1303      0   0   0
    1304    1293      0   0   0
    1304    1183      0   0   0
    1304    1171      0   0   0
    1305    1306      0   0   0
    1305    1316      0   0   0
    1305      95      1   0   0
    1305     107      1   0   0
    1305    1304      0   0   0
    1305    1294      0   0   0
    1305    1184      0   0   0
    1305    1172      0   0   0
    1306    1307      0   0   0
    1306    1317      0   0   0
    1306      96      1   0   0
    1306     108      1   0   0
    1306    1305      0   0   0
    1306    1295      0   0   0
    1306    1185      0   0   0
    1306    1173      0   0   0
    1307    1308      0   0   0
    1307    1318      0   0   0
    1307      97      1   0   0
    1307     109      1   0   0
    1307    1306      0   0   0
    1307    1296      0   0   0
    1307    1186      0   0   0
    1307    1174      0   0   0
    1308    1309      0   0   0
    1308    1319      0   0   0
    1308      98      1   0   0
    1308     110      1   0   0
    1308    1307      0   0   0
    1308    1297      0   0   0
    1308    1187      0   0   0
    1308    1175      0   0   0
    1309    1299      0   0   1
    1309    1320      0   0   0
    1309      99      1   0   0
    1309     100      1   0   1
    1309    1308      0   0   0
    1309    1298      0   0   0
    1309    1188      0   0   0
    1309    1176      0   0   0
    1310    1311      0   0   0
    1310    1321      0   0   0
    1310     100      1   0   0
    1310     112      1   0   0
    1310    1320      0   0  -1
    1310    1299      0   0   0
    1310    1189      0   0   0
    1310    1188      0   0  -1
    1311    1312      0   0   0
    1311    1322      0   0   0
    1311     101      1   0   0
    1311     113      1   0   0
    1311    1310      0   0   0
    1311    1300      0   0   0
    1311    1190      0   0   0
    1311    1178      0   0   0
    1312    1313      0   0   0
    1312    1323      0   0   0
    1312     102      1   0   0
    1312     114      1   0   0
    1312    1311      0   0   0
    1312    1301      0   0   0
    1312    1191      0   0   0
    1312    1179      0   0   0
    1313    1314      0   0   0
    1313    1324      0   0   0
    1313     103      1   0   0
    1313     115      1   0   0
    1313    1312      0   0   0
    1313    1302      0   0   0
    1313    1192      0   0   0
    1313    1180      0   0   0
    1314    1315      0   0   0
    1314    1325      0   0   0
    1314     104      1   0   0
    1314     116      1   0   0
    1314    1313      0   0   0
    1314    1303      0   0   0
    1314    1193      0   0   0
    1314    1181      0   0   0
    1315    1316      0   0   0
    1315    1326      0   0   0
    1315     105      1   0   0
    1315     117      1   0   0
    1315    1314      0   0   0
    1315    1304      0   0   0
    1315    1194      0   0   0
    1315    1182      0   0   0
    1316    1317      0   0   0
    1316    1327      0   0   0
    1316     106      1   0   0
    1316     118      1   0   0
    1316    1315      0   0   0
    1316    1305      0   0   0
    1316    1195      0   0   0
    1316    1183      0   0   0
    1317    1318      0   0   0
    1317    1328      0   0   0
    1317     107      1   0   0
    1317     119      1   0   0
    1317    1316      0   0   0
    1317    1306      0   0   0
    1317    1196      0   0   0
    1317    1184      0   0   0
    1318    1319      0   0   0
    1318    1329      0   0   0
    1318     108      1   0   0
    1318     120      1   0   0
    1318    1317      0   0   0
    1318    1307      0   0   0
    1318    1197      0   0   0
    1318    1185      0   0   0
    1319    1320      0   0   0
    1319    1330      0   0   0
    1319     109      1   0   0
    1319     121      1   0   0
    1319    1318      0   0   0
    1319    1308      0   0   0
    1319    1198      0   0   0
    1319    1186      0   0   0
    1320    1310      0   0   1
    1320    1331      0   0   0
    1320     110      1   0   0
    1320     111      1   0   1
    1320    1319      0   0   0
    1320    1309      0   0   0
    1320    1199      0   0   0
    1320    1187      0   0   0
    1321    1322      0   0   0
    1321    1211      0   1   0
    1321     111      1   0   0
    1321       2      1   1   0
    1321    1331      0   0  -1
    1321    1310      0   0   0
    1321    1200      0   0   0
    1321    1199      0   0  -1
    1322    1323      0   0   0
    1322    1212      0   1   0
    1322     112      1   0   0
    1322       3      1   1   0
    1322    1321      0   0   0
    1322    1311      0   0   0
    1322    1201      0   0   0
    1322    1189      0   0   0
    1323    1324      0   0   0
    1323    1213      0   1   0
    1323     113      1   0   0
    1323       4      1   1   0
    1323    1322      0   0   0
    1323    1312      0   0   0
    1323    1202      0   0   0
    1323    1190      0   0   0
    1324    1325      0   0   0
    1324    1214      0   1   0
    1324     114      1   0   0
    1324       5      1   1   0
    1324    1323      0   0   0
    1324    1313      0   0   0
    1324    1203      0   0   0
    1324    1191      0   0   0
    1325    1326      0   0   0
    1325    1215      0   1   0
    1325     115      1   0   0
    1325       6      1   1   0
    1325    1324      0   0   0
    1325    1314      0   0   0
    1325    1204      0   0   0
    1325    1192      0   0   0
    1326    1327      0   0   0
    1326    1216      0   1   0
    1326     116      1   0   0
    1326       7      1   1   0
    1326    1325      0   0   0
    1326    1315      0   0   0
    1326    1205      0   0   0
    1326    1193      0   0   0
    1327    1328      0   0   0
    1327    1217      0   1   0
    1327     117      1   0   0
    1327       8      1   1   0
    1327    1326      0   0   0
    1327    1316      0   0   0
    1327    1206      0   0   0
    1327    1194      0   0   0
    1328    1329      0   0   0
    1328    1218      0   1   0
    1328     118      1   0   0
    1328       9      1   1   0
    1328    1327      0   0   0
    1328    1317      0   0   0
    1328    1207      0   0   0
    1328    1195      0   0   0
    1329    1330      0   0   0
    1329    1219      0   1   0
    1329     119      1   0   0
    1329      10      1   1   0
    1329    1328      0   0   0
    1329    1318      0   0   0
    1329    1208      0   0   0
    1329    1196      0   0   0
    1330    1331      0   0   0
    1330    1220      0   1   0
    1330     120      1   0   0
    1330      11      1   1   0
    1330    1329      0   0   0
    1330    1319      0   0   0
    1330    1209      0   0   0
    1330    1197      0   0   0
    1331    1321      0   0   1
    1331    1221      0   1   0
    1331     121      1   0   0
    1331       1      1   1   1
    1331    1330      0   0   0
    1331    1320      0   0   0
    1331    1210      0   0   0
    1331    1198      0   0   0
end nnkpts

begin exclude_bands
   0
end exclude_bands
