
     Program PWSCF v.7.4.1 starts on  4Feb2026 at 14:18:44 

     This program is part of the open-source Quantum ESPRESSO suite
     for quantum simulation of materials; please cite
         "P. Giannozzi et al., J. Phys.:Condens. Matter 21 395502 (2009);
         "P. Giannozzi et al., J. Phys.:Condens. Matter 29 465901 (2017);
         "P. Giannozzi et al., J. Chem. Phys. 152 154105 (2020);
          URL http://www.quantum-espresso.org", 
     in publications or presentations arising from this work. More details at
     http://www.quantum-espresso.org/quote

     Parallel version (MPI), running on     1 processors

     MPI processes distributed on     1 nodes
     115171 MiB available memory on the printing compute node when the environment starts
 
     Reading input from aiida.in

     Current dimensions of program PWSCF are:
     Max number of different atomic species (ntypx) = 10
     Max number of k-points (npk) =  40000
     Max angular momentum in pseudopotentials (lmaxx) =  4
     Message from routine set_cutoff:
     ecutrho < 4*ecutwfc, are you sure?
     Message from routine setup:
     using ibrav=0 with symmetry is DISCOURAGED, use correct ibrav instead
 
     Subspace diagonalization in iterative solution of the eigenvalue problem:
     a serial algorithm will be used

 
     G-vector sticks info
     --------------------
     sticks:   dense  smooth     PW     G-vecs:    dense   smooth      PW
     Sum         463     463    265                 6615     6615    2837
 
     Using Slab Decomposition
 


     bravais-lattice index     =            0
     lattice parameter (alat)  =       7.2565  a.u.
     unit-cell volume          =     270.1851 (a.u.)^3
     number of atoms/cell      =            2
     number of atomic types    =            1
     number of electrons       =         8.00
     number of Kohn-Sham states=            8
     kinetic-energy cutoff     =      60.0000  Ry
     charge density cutoff     =     128.0000  Ry
     scf convergence threshold =      4.0E-10
     mixing beta               =       0.4000
     number of iterations used =            8  plain     mixing
     Exchange-correlation= SLA  PW   NOGX NOGC
                           (   1   4   0   0   0   0   0)

     celldm(1)=   7.256471  celldm(2)=   0.000000  celldm(3)=   0.000000
     celldm(4)=   0.000000  celldm(5)=   0.000000  celldm(6)=   0.000000

     crystal axes: (cart. coord. in units of alat)
               a(1) = (   0.000000   0.707107   0.707107 )  
               a(2) = (   0.707107   0.000000   0.707107 )  
               a(3) = (   0.707107   0.707107   0.000000 )  

     reciprocal axes: (cart. coord. in units 2 pi/alat)
               b(1) = ( -0.707107  0.707107  0.707107 )  
               b(2) = (  0.707107 -0.707107  0.707107 )  
               b(3) = (  0.707107  0.707107 -0.707107 )  


     PseudoPot. # 1 for Si read from file:
     ./pseudo/Si.upf
     MD5 check sum: 9e2d726316af3d4752eea8ab0afbb951
     Pseudo is Norm-conserving + core correction, Zval =  4.0
     Generated using ONCVPSP code by D. R. Hamann
     Using radial grid of 1510 points,  6 beta functions with: 
                l(1) =   0
                l(2) =   0
                l(3) =   1
                l(4) =   1
                l(5) =   2
                l(6) =   2

     atomic species   valence    mass     pseudopotential
     Si                4.00    28.08550     Si( 1.00)

     48 Sym. Ops., with inversion, found (24 have fractional translation)


                                    s                        frac. trans.

      isym =  1     identity                                     

 cryst.   s( 1) = (     1          0          0      )
                  (     0          1          0      )
                  (     0          0          1      )

 cart.    s( 1) = (  1.0000000  0.0000000  0.0000000 )
                  (  0.0000000  1.0000000  0.0000000 )
                  (  0.0000000  0.0000000  1.0000000 )


      isym =  2     180 deg rotation - cart. axis [0,0,1]        

 cryst.   s( 2) = (     0          1         -1      )
                  (     1          0         -1      )
                  (     0          0         -1      )

 cart.    s( 2) = ( -1.0000000  0.0000000  0.0000000 )
                  (  0.0000000 -1.0000000  0.0000000 )
                  (  0.0000000  0.0000000  1.0000000 )


      isym =  3     180 deg rotation - cart. axis [0,1,0]        

 cryst.   s( 3) = (     0         -1          1      )
                  (     0         -1          0      )
                  (     1         -1          0      )

 cart.    s( 3) = ( -1.0000000  0.0000000  0.0000000 )
                  (  0.0000000  1.0000000  0.0000000 )
                  (  0.0000000  0.0000000 -1.0000000 )


      isym =  4     180 deg rotation - cart. axis [1,0,0]        

 cryst.   s( 4) = (    -1          0          0      )
                  (    -1          0          1      )
                  (    -1          1          0      )

 cart.    s( 4) = (  1.0000000  0.0000000  0.0000000 )
                  (  0.0000000 -1.0000000  0.0000000 )
                  (  0.0000000  0.0000000 -1.0000000 )


      isym =  5     180 deg rotation - cart. axis [1,1,0]        

 cryst.   s( 5) = (    -1          0          1      )    f =( -0.2500000 )
                  (     0         -1          1      )       ( -0.2500000 )
                  (     0          0          1      )       ( -0.2500000 )

 cart.    s( 5) = (  0.0000000  1.0000000  0.0000000 )    f =( -0.3535534 )
                  (  1.0000000  0.0000000  0.0000000 )       ( -0.3535534 )
                  (  0.0000000  0.0000000 -1.0000000 )       ( -0.3535534 )


      isym =  6     180 deg rotation - cart. axis [1,-1,0]       

 cryst.   s( 6) = (     0         -1          0      )    f =( -0.2500000 )
                  (    -1          0          0      )       ( -0.2500000 )
                  (     0          0         -1      )       ( -0.2500000 )

 cart.    s( 6) = (  0.0000000 -1.0000000  0.0000000 )    f =( -0.3535534 )
                  ( -1.0000000  0.0000000  0.0000000 )       ( -0.3535534 )
                  (  0.0000000  0.0000000 -1.0000000 )       ( -0.3535534 )


      isym =  7      90 deg rotation - cart. axis [0,0,-1]       

 cryst.   s( 7) = (     0          1          0      )    f =( -0.2500000 )
                  (     0          1         -1      )       ( -0.2500000 )
                  (    -1          1          0      )       ( -0.2500000 )

 cart.    s( 7) = (  0.0000000  1.0000000  0.0000000 )    f =( -0.3535534 )
                  ( -1.0000000  0.0000000  0.0000000 )       ( -0.3535534 )
                  (  0.0000000  0.0000000  1.0000000 )       ( -0.3535534 )


      isym =  8      90 deg rotation - cart. axis [0,0,1]        

 cryst.   s( 8) = (     1          0         -1      )    f =( -0.2500000 )
                  (     1          0          0      )       ( -0.2500000 )
                  (     1         -1          0      )       ( -0.2500000 )

 cart.    s( 8) = (  0.0000000 -1.0000000  0.0000000 )    f =( -0.3535534 )
                  (  1.0000000  0.0000000  0.0000000 )       ( -0.3535534 )
                  (  0.0000000  0.0000000  1.0000000 )       ( -0.3535534 )


      isym =  9     180 deg rotation - cart. axis [1,0,1]        

 cryst.   s( 9) = (    -1          1          0      )    f =( -0.2500000 )
                  (     0          1          0      )       ( -0.2500000 )
                  (     0          1         -1      )       ( -0.2500000 )

 cart.    s( 9) = (  0.0000000  0.0000000  1.0000000 )    f =( -0.3535534 )
                  (  0.0000000 -1.0000000  0.0000000 )       ( -0.3535534 )
                  (  1.0000000  0.0000000  0.0000000 )       ( -0.3535534 )


      isym = 10     180 deg rotation - cart. axis [-1,0,1]       

 cryst.   s(10) = (     0          0         -1      )    f =( -0.2500000 )
                  (     0         -1          0      )       ( -0.2500000 )
                  (    -1          0          0      )       ( -0.2500000 )

 cart.    s(10) = (  0.0000000  0.0000000 -1.0000000 )    f =( -0.3535534 )
                  (  0.0000000 -1.0000000  0.0000000 )       ( -0.3535534 )
                  ( -1.0000000  0.0000000  0.0000000 )       ( -0.3535534 )


      isym = 11      90 deg rotation - cart. axis [0,1,0]        

 cryst.   s(11) = (     0          0          1      )    f =( -0.2500000 )
                  (    -1          0          1      )       ( -0.2500000 )
                  (     0         -1          1      )       ( -0.2500000 )

 cart.    s(11) = (  0.0000000  0.0000000  1.0000000 )    f =( -0.3535534 )
                  (  0.0000000  1.0000000  0.0000000 )       ( -0.3535534 )
                  ( -1.0000000  0.0000000  0.0000000 )       ( -0.3535534 )


      isym = 12      90 deg rotation - cart. axis [0,-1,0]       

 cryst.   s(12) = (     1         -1          0      )    f =( -0.2500000 )
                  (     1          0         -1      )       ( -0.2500000 )
                  (     1          0          0      )       ( -0.2500000 )

 cart.    s(12) = (  0.0000000  0.0000000 -1.0000000 )    f =( -0.3535534 )
                  (  0.0000000  1.0000000  0.0000000 )       ( -0.3535534 )
                  (  1.0000000  0.0000000  0.0000000 )       ( -0.3535534 )


      isym = 13     180 deg rotation - cart. axis [0,1,1]        

 cryst.   s(13) = (     1          0          0      )    f =( -0.2500000 )
                  (     1         -1          0      )       ( -0.2500000 )
                  (     1          0         -1      )       ( -0.2500000 )

 cart.    s(13) = ( -1.0000000  0.0000000  0.0000000 )    f =( -0.3535534 )
                  (  0.0000000  0.0000000  1.0000000 )       ( -0.3535534 )
                  (  0.0000000  1.0000000  0.0000000 )       ( -0.3535534 )


      isym = 14     180 deg rotation - cart. axis [0,1,-1]       

 cryst.   s(14) = (    -1          0          0      )    f =( -0.2500000 )
                  (     0          0         -1      )       ( -0.2500000 )
                  (     0         -1          0      )       ( -0.2500000 )

 cart.    s(14) = ( -1.0000000  0.0000000  0.0000000 )    f =( -0.3535534 )
                  (  0.0000000  0.0000000 -1.0000000 )       ( -0.3535534 )
                  (  0.0000000 -1.0000000  0.0000000 )       ( -0.3535534 )


      isym = 15      90 deg rotation - cart. axis [-1,0,0]       

 cryst.   s(15) = (     0         -1          1      )    f =( -0.2500000 )
                  (     0          0          1      )       ( -0.2500000 )
                  (    -1          0          1      )       ( -0.2500000 )

 cart.    s(15) = (  1.0000000  0.0000000  0.0000000 )    f =( -0.3535534 )
                  (  0.0000000  0.0000000  1.0000000 )       ( -0.3535534 )
                  (  0.0000000 -1.0000000  0.0000000 )       ( -0.3535534 )


      isym = 16      90 deg rotation - cart. axis [1,0,0]        

 cryst.   s(16) = (     0          1         -1      )    f =( -0.2500000 )
                  (    -1          1          0      )       ( -0.2500000 )
                  (     0          1          0      )       ( -0.2500000 )

 cart.    s(16) = (  1.0000000  0.0000000  0.0000000 )    f =( -0.3535534 )
                  (  0.0000000  0.0000000 -1.0000000 )       ( -0.3535534 )
                  (  0.0000000  1.0000000  0.0000000 )       ( -0.3535534 )


      isym = 17     120 deg rotation - cart. axis [-1,-1,-1]     

 cryst.   s(17) = (     0          0          1      )
                  (     1          0          0      )
                  (     0          1          0      )

 cart.    s(17) = (  0.0000000  1.0000000  0.0000000 )
                  (  0.0000000  0.0000000  1.0000000 )
                  (  1.0000000  0.0000000  0.0000000 )


      isym = 18     120 deg rotation - cart. axis [-1,1,1]       

 cryst.   s(18) = (     1         -1          0      )
                  (     0         -1          1      )
                  (     0         -1          0      )

 cart.    s(18) = (  0.0000000 -1.0000000  0.0000000 )
                  (  0.0000000  0.0000000  1.0000000 )
                  ( -1.0000000  0.0000000  0.0000000 )


      isym = 19     120 deg rotation - cart. axis [1,1,-1]       

 cryst.   s(19) = (    -1          1          0      )
                  (    -1          0          0      )
                  (    -1          0          1      )

 cart.    s(19) = (  0.0000000  1.0000000  0.0000000 )
                  (  0.0000000  0.0000000 -1.0000000 )
                  ( -1.0000000  0.0000000  0.0000000 )


      isym = 20     120 deg rotation - cart. axis [1,-1,1]       

 cryst.   s(20) = (     0          0         -1      )
                  (     0          1         -1      )
                  (     1          0         -1      )

 cart.    s(20) = (  0.0000000 -1.0000000  0.0000000 )
                  (  0.0000000  0.0000000 -1.0000000 )
                  (  1.0000000  0.0000000  0.0000000 )


      isym = 21     120 deg rotation - cart. axis [1,1,1]        

 cryst.   s(21) = (     0          1          0      )
                  (     0          0          1      )
                  (     1          0          0      )

 cart.    s(21) = (  0.0000000  0.0000000  1.0000000 )
                  (  1.0000000  0.0000000  0.0000000 )
                  (  0.0000000  1.0000000  0.0000000 )


      isym = 22     120 deg rotation - cart. axis [-1,1,-1]      

 cryst.   s(22) = (    -1          0          1      )
                  (    -1          1          0      )
                  (    -1          0          0      )

 cart.    s(22) = (  0.0000000  0.0000000  1.0000000 )
                  ( -1.0000000  0.0000000  0.0000000 )
                  (  0.0000000 -1.0000000  0.0000000 )


      isym = 23     120 deg rotation - cart. axis [1,-1,-1]      

 cryst.   s(23) = (     1          0         -1      )
                  (     0          0         -1      )
                  (     0          1         -1      )

 cart.    s(23) = (  0.0000000  0.0000000 -1.0000000 )
                  ( -1.0000000  0.0000000  0.0000000 )
                  (  0.0000000  1.0000000  0.0000000 )


      isym = 24     120 deg rotation - cart. axis [-1,-1,1]      

 cryst.   s(24) = (     0         -1          0      )
                  (     1         -1          0      )
                  (     0         -1          1      )

 cart.    s(24) = (  0.0000000  0.0000000 -1.0000000 )
                  (  1.0000000  0.0000000  0.0000000 )
                  (  0.0000000 -1.0000000  0.0000000 )


      isym = 25     inversion                                    

 cryst.   s(25) = (    -1          0          0      )    f =( -0.2500000 )
                  (     0         -1          0      )       ( -0.2500000 )
                  (     0          0         -1      )       ( -0.2500000 )

 cart.    s(25) = ( -1.0000000  0.0000000  0.0000000 )    f =( -0.3535534 )
                  (  0.0000000 -1.0000000  0.0000000 )       ( -0.3535534 )
                  (  0.0000000  0.0000000 -1.0000000 )       ( -0.3535534 )


      isym = 26     inv. 180 deg rotation - cart. axis [0,0,1]   

 cryst.   s(26) = (     0         -1          1      )    f =( -0.2500000 )
                  (    -1          0          1      )       ( -0.2500000 )
                  (     0          0          1      )       ( -0.2500000 )

 cart.    s(26) = (  1.0000000  0.0000000  0.0000000 )    f =( -0.3535534 )
                  (  0.0000000  1.0000000  0.0000000 )       ( -0.3535534 )
                  (  0.0000000  0.0000000 -1.0000000 )       ( -0.3535534 )


      isym = 27     inv. 180 deg rotation - cart. axis [0,1,0]   

 cryst.   s(27) = (     0          1         -1      )    f =( -0.2500000 )
                  (     0          1          0      )       ( -0.2500000 )
                  (    -1          1          0      )       ( -0.2500000 )

 cart.    s(27) = (  1.0000000  0.0000000  0.0000000 )    f =( -0.3535534 )
                  (  0.0000000 -1.0000000  0.0000000 )       ( -0.3535534 )
                  (  0.0000000  0.0000000  1.0000000 )       ( -0.3535534 )


      isym = 28     inv. 180 deg rotation - cart. axis [1,0,0]   

 cryst.   s(28) = (     1          0          0      )    f =( -0.2500000 )
                  (     1          0         -1      )       ( -0.2500000 )
                  (     1         -1          0      )       ( -0.2500000 )

 cart.    s(28) = ( -1.0000000  0.0000000  0.0000000 )    f =( -0.3535534 )
                  (  0.0000000  1.0000000  0.0000000 )       ( -0.3535534 )
                  (  0.0000000  0.0000000  1.0000000 )       ( -0.3535534 )


      isym = 29     inv. 180 deg rotation - cart. axis [1,1,0]   

 cryst.   s(29) = (     1          0         -1      )
                  (     0          1         -1      )
                  (     0          0         -1      )

 cart.    s(29) = (  0.0000000 -1.0000000  0.0000000 )
                  ( -1.0000000  0.0000000  0.0000000 )
                  (  0.0000000  0.0000000  1.0000000 )


      isym = 30     inv. 180 deg rotation - cart. axis [1,-1,0]  

 cryst.   s(30) = (     0          1          0      )
                  (     1          0          0      )
                  (     0          0          1      )

 cart.    s(30) = (  0.0000000  1.0000000  0.0000000 )
                  (  1.0000000  0.0000000  0.0000000 )
                  (  0.0000000  0.0000000  1.0000000 )


      isym = 31     inv.  90 deg rotation - cart. axis [0,0,-1]  

 cryst.   s(31) = (     0         -1          0      )
                  (     0         -1          1      )
                  (     1         -1          0      )

 cart.    s(31) = (  0.0000000 -1.0000000  0.0000000 )
                  (  1.0000000  0.0000000  0.0000000 )
                  (  0.0000000  0.0000000 -1.0000000 )


      isym = 32     inv.  90 deg rotation - cart. axis [0,0,1]   

 cryst.   s(32) = (    -1          0          1      )
                  (    -1          0          0      )
                  (    -1          1          0      )

 cart.    s(32) = (  0.0000000  1.0000000  0.0000000 )
                  ( -1.0000000  0.0000000  0.0000000 )
                  (  0.0000000  0.0000000 -1.0000000 )


      isym = 33     inv. 180 deg rotation - cart. axis [1,0,1]   

 cryst.   s(33) = (     1         -1          0      )
                  (     0         -1          0      )
                  (     0         -1          1      )

 cart.    s(33) = (  0.0000000  0.0000000 -1.0000000 )
                  (  0.0000000  1.0000000  0.0000000 )
                  ( -1.0000000  0.0000000  0.0000000 )


      isym = 34     inv. 180 deg rotation - cart. axis [-1,0,1]  

 cryst.   s(34) = (     0          0          1      )
                  (     0          1          0      )
                  (     1          0          0      )

 cart.    s(34) = (  0.0000000  0.0000000  1.0000000 )
                  (  0.0000000  1.0000000  0.0000000 )
                  (  1.0000000  0.0000000  0.0000000 )


      isym = 35     inv.  90 deg rotation - cart. axis [0,1,0]   

 cryst.   s(35) = (     0          0         -1      )
                  (     1          0         -1      )
                  (     0          1         -1      )

 cart.    s(35) = (  0.0000000  0.0000000 -1.0000000 )
                  (  0.0000000 -1.0000000  0.0000000 )
                  (  1.0000000  0.0000000  0.0000000 )


      isym = 36     inv.  90 deg rotation - cart. axis [0,-1,0]  

 cryst.   s(36) = (    -1          1          0      )
                  (    -1          0          1      )
                  (    -1          0          0      )

 cart.    s(36) = (  0.0000000  0.0000000  1.0000000 )
                  (  0.0000000 -1.0000000  0.0000000 )
                  ( -1.0000000  0.0000000  0.0000000 )


      isym = 37     inv. 180 deg rotation - cart. axis [0,1,1]   

 cryst.   s(37) = (    -1          0          0      )
                  (    -1          1          0      )
                  (    -1          0          1      )

 cart.    s(37) = (  1.0000000  0.0000000  0.0000000 )
                  (  0.0000000  0.0000000 -1.0000000 )
                  (  0.0000000 -1.0000000  0.0000000 )


      isym = 38     inv. 180 deg rotation - cart. axis [0,1,-1]  

 cryst.   s(38) = (     1          0          0      )
                  (     0          0          1      )
                  (     0          1          0      )

 cart.    s(38) = (  1.0000000  0.0000000  0.0000000 )
                  (  0.0000000  0.0000000  1.0000000 )
                  (  0.0000000  1.0000000  0.0000000 )


      isym = 39     inv.  90 deg rotation - cart. axis [-1,0,0]  

 cryst.   s(39) = (     0          1         -1      )
                  (     0          0         -1      )
                  (     1          0         -1      )

 cart.    s(39) = ( -1.0000000  0.0000000  0.0000000 )
                  (  0.0000000  0.0000000 -1.0000000 )
                  (  0.0000000  1.0000000  0.0000000 )


      isym = 40     inv.  90 deg rotation - cart. axis [1,0,0]   

 cryst.   s(40) = (     0         -1          1      )
                  (     1         -1          0      )
                  (     0         -1          0      )

 cart.    s(40) = ( -1.0000000  0.0000000  0.0000000 )
                  (  0.0000000  0.0000000  1.0000000 )
                  (  0.0000000 -1.0000000  0.0000000 )


      isym = 41     inv. 120 deg rotation - cart. axis [-1,-1,-1]

 cryst.   s(41) = (     0          0         -1      )    f =( -0.2500000 )
                  (    -1          0          0      )       ( -0.2500000 )
                  (     0         -1          0      )       ( -0.2500000 )

 cart.    s(41) = (  0.0000000 -1.0000000  0.0000000 )    f =( -0.3535534 )
                  (  0.0000000  0.0000000 -1.0000000 )       ( -0.3535534 )
                  ( -1.0000000  0.0000000  0.0000000 )       ( -0.3535534 )


      isym = 42     inv. 120 deg rotation - cart. axis [-1,1,1]  

 cryst.   s(42) = (    -1          1          0      )    f =( -0.2500000 )
                  (     0          1         -1      )       ( -0.2500000 )
                  (     0          1          0      )       ( -0.2500000 )

 cart.    s(42) = (  0.0000000  1.0000000  0.0000000 )    f =( -0.3535534 )
                  (  0.0000000  0.0000000 -1.0000000 )       ( -0.3535534 )
                  (  1.0000000  0.0000000  0.0000000 )       ( -0.3535534 )


      isym = 43     inv. 120 deg rotation - cart. axis [1,1,-1]  

 cryst.   s(43) = (     1         -1          0      )    f =( -0.2500000 )
                  (     1          0          0      )       ( -0.2500000 )
                  (     1          0         -1      )       ( -0.2500000 )

 cart.    s(43) = (  0.0000000 -1.0000000  0.0000000 )    f =( -0.3535534 )
                  (  0.0000000  0.0000000  1.0000000 )       ( -0.3535534 )
                  (  1.0000000  0.0000000  0.0000000 )       ( -0.3535534 )


      isym = 44     inv. 120 deg rotation - cart. axis [1,-1,1]  

 cryst.   s(44) = (     0          0          1      )    f =( -0.2500000 )
                  (     0         -1          1      )       ( -0.2500000 )
                  (    -1          0          1      )       ( -0.2500000 )

 cart.    s(44) = (  0.0000000  1.0000000  0.0000000 )    f =( -0.3535534 )
                  (  0.0000000  0.0000000  1.0000000 )       ( -0.3535534 )
                  ( -1.0000000  0.0000000  0.0000000 )       ( -0.3535534 )


      isym = 45     inv. 120 deg rotation - cart. axis [1,1,1]   

 cryst.   s(45) = (     0         -1          0      )    f =( -0.2500000 )
                  (     0          0         -1      )       ( -0.2500000 )
                  (    -1          0          0      )       ( -0.2500000 )

 cart.    s(45) = (  0.0000000  0.0000000 -1.0000000 )    f =( -0.3535534 )
                  ( -1.0000000  0.0000000  0.0000000 )       ( -0.3535534 )
                  (  0.0000000 -1.0000000  0.0000000 )       ( -0.3535534 )


      isym = 46     inv. 120 deg rotation - cart. axis [-1,1,-1] 

 cryst.   s(46) = (     1          0         -1      )    f =( -0.2500000 )
                  (     1         -1          0      )       ( -0.2500000 )
                  (     1          0          0      )       ( -0.2500000 )

 cart.    s(46) = (  0.0000000  0.0000000 -1.0000000 )    f =( -0.3535534 )
                  (  1.0000000  0.0000000  0.0000000 )       ( -0.3535534 )
                  (  0.0000000  1.0000000  0.0000000 )       ( -0.3535534 )


      isym = 47     inv. 120 deg rotation - cart. axis [1,-1,-1] 

 cryst.   s(47) = (    -1          0          1      )    f =( -0.2500000 )
                  (     0          0          1      )       ( -0.2500000 )
                  (     0         -1          1      )       ( -0.2500000 )

 cart.    s(47) = (  0.0000000  0.0000000  1.0000000 )    f =( -0.3535534 )
                  (  1.0000000  0.0000000  0.0000000 )       ( -0.3535534 )
                  (  0.0000000 -1.0000000  0.0000000 )       ( -0.3535534 )


      isym = 48     inv. 120 deg rotation - cart. axis [-1,-1,1] 

 cryst.   s(48) = (     0          1          0      )    f =( -0.2500000 )
                  (    -1          1          0      )       ( -0.2500000 )
                  (     0          1         -1      )       ( -0.2500000 )

 cart.    s(48) = (  0.0000000  0.0000000  1.0000000 )    f =( -0.3535534 )
                  ( -1.0000000  0.0000000  0.0000000 )       ( -0.3535534 )
                  (  0.0000000  1.0000000  0.0000000 )       ( -0.3535534 )


   Cartesian axes

     site n.     atom                  positions (alat units)
         1        Si     tau(   1) = (   0.3535534   0.3535534   1.0606602  )
         2        Si     tau(   2) = (   0.7071068   0.7071068   0.7071068  )

   Crystallographic axes

     site n.     atom                  positions (cryst. coord.)
         1        Si     tau(   1) = (  0.7500000  0.7500000 -0.2500000  )
         2        Si     tau(   2) = (  0.5000000  0.5000000  0.5000000  )

     number of k points=   104  Marzari-Vanderbilt smearing, width (Ry)=  0.0200
                       cart. coord. in units 2pi/alat
        k(    1) = (   0.0000000   0.0000000   0.0000000), wk =   0.0007289
        k(    2) = (   0.0505076   0.0505076  -0.0505076), wk =   0.0058309
        k(    3) = (   0.1010153   0.1010153  -0.1010153), wk =   0.0058309
        k(    4) = (   0.1515229   0.1515229  -0.1515229), wk =   0.0058309
        k(    5) = (   0.2020305   0.2020305  -0.2020305), wk =   0.0058309
        k(    6) = (   0.2525381   0.2525381  -0.2525381), wk =   0.0058309
        k(    7) = (   0.3030458   0.3030458  -0.3030458), wk =   0.0058309
        k(    8) = (  -0.3535534  -0.3535534   0.3535534), wk =   0.0029155
        k(    9) = (   0.1010153   0.0000000   0.0000000), wk =   0.0043732
        k(   10) = (   0.1515229   0.0505076  -0.0505076), wk =   0.0174927
        k(   11) = (   0.2020305   0.1010153  -0.1010153), wk =   0.0174927
        k(   12) = (   0.2525381   0.1515229  -0.1515229), wk =   0.0174927
        k(   13) = (   0.3030458   0.2020305  -0.2020305), wk =   0.0174927
        k(   14) = (   0.3535534   0.2525381  -0.2525381), wk =   0.0174927
        k(   15) = (  -0.3030458  -0.4040610   0.4040610), wk =   0.0174927
        k(   16) = (  -0.2525381  -0.3535534   0.3535534), wk =   0.0174927
        k(   17) = (  -0.2020305  -0.3030458   0.3030458), wk =   0.0174927
        k(   18) = (  -0.1515229  -0.2525381   0.2525381), wk =   0.0174927
        k(   19) = (  -0.1010153  -0.2020305   0.2020305), wk =   0.0174927
        k(   20) = (  -0.0505076  -0.1515229   0.1515229), wk =   0.0174927
        k(   21) = (  -0.0000000  -0.1010153   0.1010153), wk =   0.0087464
        k(   22) = (   0.2020305   0.0000000   0.0000000), wk =   0.0043732
        k(   23) = (   0.2525381   0.0505076  -0.0505076), wk =   0.0174927
        k(   24) = (   0.3030458   0.1010153  -0.1010153), wk =   0.0174927
        k(   25) = (   0.3535534   0.1515229  -0.1515229), wk =   0.0174927
        k(   26) = (   0.4040610   0.2020305  -0.2020305), wk =   0.0174927
        k(   27) = (  -0.2525381  -0.4545686   0.4545686), wk =   0.0174927
        k(   28) = (  -0.2020305  -0.4040610   0.4040610), wk =   0.0174927
        k(   29) = (  -0.1515229  -0.3535534   0.3535534), wk =   0.0174927
        k(   30) = (  -0.1010153  -0.3030458   0.3030458), wk =   0.0174927
        k(   31) = (  -0.0505076  -0.2525381   0.2525381), wk =   0.0174927
        k(   32) = (  -0.0000000  -0.2020305   0.2020305), wk =   0.0087464
        k(   33) = (   0.3030458   0.0000000   0.0000000), wk =   0.0043732
        k(   34) = (   0.3535534   0.0505076  -0.0505076), wk =   0.0174927
        k(   35) = (   0.4040610   0.1010153  -0.1010153), wk =   0.0174927
        k(   36) = (   0.4545686   0.1515229  -0.1515229), wk =   0.0174927
        k(   37) = (  -0.2020305  -0.5050763   0.5050763), wk =   0.0174927
        k(   38) = (  -0.1515229  -0.4545686   0.4545686), wk =   0.0174927
        k(   39) = (  -0.1010153  -0.4040610   0.4040610), wk =   0.0174927
        k(   40) = (  -0.0505076  -0.3535534   0.3535534), wk =   0.0174927
        k(   41) = (   0.0000000  -0.3030458   0.3030458), wk =   0.0087464
        k(   42) = (   0.4040610   0.0000000   0.0000000), wk =   0.0043732
        k(   43) = (   0.4545686   0.0505076  -0.0505076), wk =   0.0174927
        k(   44) = (   0.5050763   0.1010153  -0.1010153), wk =   0.0174927
        k(   45) = (  -0.1515229  -0.5555839   0.5555839), wk =   0.0174927
        k(   46) = (  -0.1010153  -0.5050763   0.5050763), wk =   0.0174927
        k(   47) = (  -0.0505076  -0.4545686   0.4545686), wk =   0.0174927
        k(   48) = (  -0.0000000  -0.4040610   0.4040610), wk =   0.0087464
        k(   49) = (   0.5050763   0.0000000   0.0000000), wk =   0.0043732
        k(   50) = (   0.5555839   0.0505076  -0.0505076), wk =   0.0174927
        k(   51) = (  -0.1010153  -0.6060915   0.6060915), wk =   0.0174927
        k(   52) = (  -0.0505076  -0.5555839   0.5555839), wk =   0.0174927
        k(   53) = (  -0.0000000  -0.5050763   0.5050763), wk =   0.0087464
        k(   54) = (   0.6060915   0.0000000   0.0000000), wk =   0.0043732
        k(   55) = (  -0.0505076  -0.6565992   0.6565992), wk =   0.0174927
        k(   56) = (   0.0000000  -0.6060915   0.6060915), wk =   0.0087464
        k(   57) = (  -0.7071068   0.0000000   0.0000000), wk =   0.0021866
        k(   58) = (   0.2020305   0.1010153   0.0000000), wk =   0.0174927
        k(   59) = (   0.2525381   0.1515229  -0.0505076), wk =   0.0349854
        k(   60) = (   0.3030458   0.2020305  -0.1010153), wk =   0.0349854
        k(   61) = (   0.3535534   0.2525381  -0.1515229), wk =   0.0349854
        k(   62) = (  -0.3030458  -0.4040610   0.5050763), wk =   0.0349854
        k(   63) = (  -0.2525381  -0.3535534   0.4545686), wk =   0.0174927
        k(   64) = (   0.3030458   0.1010153   0.0000000), wk =   0.0174927
        k(   65) = (   0.3535534   0.1515229  -0.0505076), wk =   0.0349854
        k(   66) = (   0.4040610   0.2020305  -0.1010153), wk =   0.0349854
        k(   67) = (  -0.2525381  -0.4545686   0.5555839), wk =   0.0349854
        k(   68) = (  -0.2020305  -0.4040610   0.5050763), wk =   0.0349854
        k(   69) = (  -0.1515229  -0.3535534   0.4545686), wk =   0.0349854
        k(   70) = (  -0.1010153  -0.3030458   0.4040610), wk =   0.0349854
        k(   71) = (  -0.0505076  -0.2525381   0.3535534), wk =   0.0349854
        k(   72) = (  -0.0000000  -0.2020305   0.3030458), wk =   0.0174927
        k(   73) = (   0.4040610   0.1010153   0.0000000), wk =   0.0174927
        k(   74) = (   0.4545686   0.1515229  -0.0505076), wk =   0.0349854
        k(   75) = (  -0.2020305  -0.5050763   0.6060915), wk =   0.0349854
        k(   76) = (  -0.1515229  -0.4545686   0.5555839), wk =   0.0349854
        k(   77) = (  -0.1010153  -0.4040610   0.5050763), wk =   0.0349854
        k(   78) = (  -0.0505076  -0.3535534   0.4545686), wk =   0.0349854
        k(   79) = (   0.0000000  -0.3030458   0.4040610), wk =   0.0174927
        k(   80) = (   0.5050763   0.1010153  -0.0000000), wk =   0.0174927
        k(   81) = (  -0.1515229  -0.5555839   0.6565992), wk =   0.0349854
        k(   82) = (  -0.1010153  -0.5050763   0.6060915), wk =   0.0349854
        k(   83) = (  -0.0505076  -0.4545686   0.5555839), wk =   0.0349854
        k(   84) = (  -0.0000000  -0.4040610   0.5050763), wk =   0.0174927
        k(   85) = (  -0.1010153  -0.6060915   0.7071068), wk =   0.0174927
        k(   86) = (  -0.0505076  -0.5555839   0.6565992), wk =   0.0349854
        k(   87) = (  -0.0000000  -0.5050763   0.6060915), wk =   0.0174927
        k(   88) = (  -0.7071068   0.1010153   0.0000000), wk =   0.0087464
        k(   89) = (   0.4040610   0.2020305   0.0000000), wk =   0.0174927
        k(   90) = (  -0.2525381  -0.4545686   0.6565992), wk =   0.0349854
        k(   91) = (  -0.2020305  -0.4040610   0.6060915), wk =   0.0349854
        k(   92) = (  -0.1515229  -0.3535534   0.5555839), wk =   0.0174927
        k(   93) = (  -0.2020305  -0.5050763   0.7071068), wk =   0.0174927
        k(   94) = (  -0.1515229  -0.4545686   0.6565992), wk =   0.0349854
        k(   95) = (  -0.1010153  -0.4040610   0.6060915), wk =   0.0349854
        k(   96) = (  -0.0505076  -0.3535534   0.5555839), wk =   0.0349854
        k(   97) = (  -0.0000000  -0.3030458   0.5050763), wk =   0.0174927
        k(   98) = (  -0.1010153  -0.5050763   0.7071068), wk =   0.0174927
        k(   99) = (  -0.0505076  -0.4545686   0.6565992), wk =   0.0349854
        k(  100) = (  -0.0000000  -0.4040610   0.6060915), wk =   0.0174927
        k(  101) = (  -0.7071068   0.2020305   0.0000000), wk =   0.0087464
        k(  102) = (  -0.1010153  -0.4040610   0.7071068), wk =   0.0174927
        k(  103) = (  -0.0505076  -0.3535534   0.6565992), wk =   0.0174927
        k(  104) = (  -0.7071068   0.3030458   0.0000000), wk =   0.0087464

                       cryst. coord.
        k(    1) = (   0.0000000   0.0000000   0.0000000), wk =   0.0007289
        k(    2) = (   0.0000000   0.0000000   0.0714286), wk =   0.0058309
        k(    3) = (   0.0000000   0.0000000   0.1428571), wk =   0.0058309
        k(    4) = (   0.0000000   0.0000000   0.2142857), wk =   0.0058309
        k(    5) = (   0.0000000   0.0000000   0.2857143), wk =   0.0058309
        k(    6) = (   0.0000000   0.0000000   0.3571429), wk =   0.0058309
        k(    7) = (   0.0000000   0.0000000   0.4285714), wk =   0.0058309
        k(    8) = (   0.0000000   0.0000000  -0.5000000), wk =   0.0029155
        k(    9) = (   0.0000000   0.0714286   0.0714286), wk =   0.0043732
        k(   10) = (   0.0000000   0.0714286   0.1428571), wk =   0.0174927
        k(   11) = (   0.0000000   0.0714286   0.2142857), wk =   0.0174927
        k(   12) = (   0.0000000   0.0714286   0.2857143), wk =   0.0174927
        k(   13) = (   0.0000000   0.0714286   0.3571429), wk =   0.0174927
        k(   14) = (   0.0000000   0.0714286   0.4285714), wk =   0.0174927
        k(   15) = (   0.0000000   0.0714286  -0.5000000), wk =   0.0174927
        k(   16) = (   0.0000000   0.0714286  -0.4285714), wk =   0.0174927
        k(   17) = (   0.0000000   0.0714286  -0.3571429), wk =   0.0174927
        k(   18) = (   0.0000000   0.0714286  -0.2857143), wk =   0.0174927
        k(   19) = (   0.0000000   0.0714286  -0.2142857), wk =   0.0174927
        k(   20) = (   0.0000000   0.0714286  -0.1428571), wk =   0.0174927
        k(   21) = (   0.0000000   0.0714286  -0.0714286), wk =   0.0087464
        k(   22) = (   0.0000000   0.1428571   0.1428571), wk =   0.0043732
        k(   23) = (   0.0000000   0.1428571   0.2142857), wk =   0.0174927
        k(   24) = (   0.0000000   0.1428571   0.2857143), wk =   0.0174927
        k(   25) = (   0.0000000   0.1428571   0.3571429), wk =   0.0174927
        k(   26) = (   0.0000000   0.1428571   0.4285714), wk =   0.0174927
        k(   27) = (   0.0000000   0.1428571  -0.5000000), wk =   0.0174927
        k(   28) = (   0.0000000   0.1428571  -0.4285714), wk =   0.0174927
        k(   29) = (   0.0000000   0.1428571  -0.3571429), wk =   0.0174927
        k(   30) = (   0.0000000   0.1428571  -0.2857143), wk =   0.0174927
        k(   31) = (   0.0000000   0.1428571  -0.2142857), wk =   0.0174927
        k(   32) = (   0.0000000   0.1428571  -0.1428571), wk =   0.0087464
        k(   33) = (   0.0000000   0.2142857   0.2142857), wk =   0.0043732
        k(   34) = (   0.0000000   0.2142857   0.2857143), wk =   0.0174927
        k(   35) = (   0.0000000   0.2142857   0.3571429), wk =   0.0174927
        k(   36) = (   0.0000000   0.2142857   0.4285714), wk =   0.0174927
        k(   37) = (   0.0000000   0.2142857  -0.5000000), wk =   0.0174927
        k(   38) = (   0.0000000   0.2142857  -0.4285714), wk =   0.0174927
        k(   39) = (   0.0000000   0.2142857  -0.3571429), wk =   0.0174927
        k(   40) = (   0.0000000   0.2142857  -0.2857143), wk =   0.0174927
        k(   41) = (   0.0000000   0.2142857  -0.2142857), wk =   0.0087464
        k(   42) = (   0.0000000   0.2857143   0.2857143), wk =   0.0043732
        k(   43) = (   0.0000000   0.2857143   0.3571429), wk =   0.0174927
        k(   44) = (   0.0000000   0.2857143   0.4285714), wk =   0.0174927
        k(   45) = (   0.0000000   0.2857143  -0.5000000), wk =   0.0174927
        k(   46) = (   0.0000000   0.2857143  -0.4285714), wk =   0.0174927
        k(   47) = (   0.0000000   0.2857143  -0.3571429), wk =   0.0174927
        k(   48) = (   0.0000000   0.2857143  -0.2857143), wk =   0.0087464
        k(   49) = (   0.0000000   0.3571429   0.3571429), wk =   0.0043732
        k(   50) = (   0.0000000   0.3571429   0.4285714), wk =   0.0174927
        k(   51) = (   0.0000000   0.3571429  -0.5000000), wk =   0.0174927
        k(   52) = (   0.0000000   0.3571429  -0.4285714), wk =   0.0174927
        k(   53) = (   0.0000000   0.3571429  -0.3571429), wk =   0.0087464
        k(   54) = (   0.0000000   0.4285714   0.4285714), wk =   0.0043732
        k(   55) = (   0.0000000   0.4285714  -0.5000000), wk =   0.0174927
        k(   56) = (   0.0000000   0.4285714  -0.4285714), wk =   0.0087464
        k(   57) = (   0.0000000  -0.5000000  -0.5000000), wk =   0.0021866
        k(   58) = (   0.0714286   0.1428571   0.2142857), wk =   0.0174927
        k(   59) = (   0.0714286   0.1428571   0.2857143), wk =   0.0349854
        k(   60) = (   0.0714286   0.1428571   0.3571429), wk =   0.0349854
        k(   61) = (   0.0714286   0.1428571   0.4285714), wk =   0.0349854
        k(   62) = (   0.0714286   0.1428571  -0.5000000), wk =   0.0349854
        k(   63) = (   0.0714286   0.1428571  -0.4285714), wk =   0.0174927
        k(   64) = (   0.0714286   0.2142857   0.2857143), wk =   0.0174927
        k(   65) = (   0.0714286   0.2142857   0.3571429), wk =   0.0349854
        k(   66) = (   0.0714286   0.2142857   0.4285714), wk =   0.0349854
        k(   67) = (   0.0714286   0.2142857  -0.5000000), wk =   0.0349854
        k(   68) = (   0.0714286   0.2142857  -0.4285714), wk =   0.0349854
        k(   69) = (   0.0714286   0.2142857  -0.3571429), wk =   0.0349854
        k(   70) = (   0.0714286   0.2142857  -0.2857143), wk =   0.0349854
        k(   71) = (   0.0714286   0.2142857  -0.2142857), wk =   0.0349854
        k(   72) = (   0.0714286   0.2142857  -0.1428571), wk =   0.0174927
        k(   73) = (   0.0714286   0.2857143   0.3571429), wk =   0.0174927
        k(   74) = (   0.0714286   0.2857143   0.4285714), wk =   0.0349854
        k(   75) = (   0.0714286   0.2857143  -0.5000000), wk =   0.0349854
        k(   76) = (   0.0714286   0.2857143  -0.4285714), wk =   0.0349854
        k(   77) = (   0.0714286   0.2857143  -0.3571429), wk =   0.0349854
        k(   78) = (   0.0714286   0.2857143  -0.2857143), wk =   0.0349854
        k(   79) = (   0.0714286   0.2857143  -0.2142857), wk =   0.0174927
        k(   80) = (   0.0714286   0.3571429   0.4285714), wk =   0.0174927
        k(   81) = (   0.0714286   0.3571429  -0.5000000), wk =   0.0349854
        k(   82) = (   0.0714286   0.3571429  -0.4285714), wk =   0.0349854
        k(   83) = (   0.0714286   0.3571429  -0.3571429), wk =   0.0349854
        k(   84) = (   0.0714286   0.3571429  -0.2857143), wk =   0.0174927
        k(   85) = (   0.0714286   0.4285714  -0.5000000), wk =   0.0174927
        k(   86) = (   0.0714286   0.4285714  -0.4285714), wk =   0.0349854
        k(   87) = (   0.0714286   0.4285714  -0.3571429), wk =   0.0174927
        k(   88) = (   0.0714286  -0.5000000  -0.4285714), wk =   0.0087464
        k(   89) = (   0.1428571   0.2857143   0.4285714), wk =   0.0174927
        k(   90) = (   0.1428571   0.2857143  -0.5000000), wk =   0.0349854
        k(   91) = (   0.1428571   0.2857143  -0.4285714), wk =   0.0349854
        k(   92) = (   0.1428571   0.2857143  -0.3571429), wk =   0.0174927
        k(   93) = (   0.1428571   0.3571429  -0.5000000), wk =   0.0174927
        k(   94) = (   0.1428571   0.3571429  -0.4285714), wk =   0.0349854
        k(   95) = (   0.1428571   0.3571429  -0.3571429), wk =   0.0349854
        k(   96) = (   0.1428571   0.3571429  -0.2857143), wk =   0.0349854
        k(   97) = (   0.1428571   0.3571429  -0.2142857), wk =   0.0174927
        k(   98) = (   0.1428571   0.4285714  -0.4285714), wk =   0.0174927
        k(   99) = (   0.1428571   0.4285714  -0.3571429), wk =   0.0349854
        k(  100) = (   0.1428571   0.4285714  -0.2857143), wk =   0.0174927
        k(  101) = (   0.1428571  -0.5000000  -0.3571429), wk =   0.0087464
        k(  102) = (   0.2142857   0.4285714  -0.3571429), wk =   0.0174927
        k(  103) = (   0.2142857   0.4285714  -0.2857143), wk =   0.0174927
        k(  104) = (   0.2142857  -0.5000000  -0.2857143), wk =   0.0087464

     Dense  grid:     6615 G-vectors     FFT dimensions: (  32,  32,  32)

     Dynamical RAM for                 wfc:       0.26 MB

     Dynamical RAM for     wfc (w. buffer):      27.17 MB

     Dynamical RAM for           str. fact:       0.10 MB

     Dynamical RAM for           local pot:       0.00 MB

     Dynamical RAM for          nlocal pot:       1.16 MB

     Dynamical RAM for                qrad:       0.91 MB

     Dynamical RAM for          rho,v,vnew:       1.05 MB

     Dynamical RAM for               rhoin:       0.35 MB

     Dynamical RAM for            rho*nmix:       1.61 MB

     Dynamical RAM for           G-vectors:       0.43 MB

     Dynamical RAM for          h,s,v(r/c):       0.01 MB

     Dynamical RAM for          <psi|beta>:       0.00 MB

     Dynamical RAM for                 psi:       0.52 MB

     Dynamical RAM for                hpsi:       0.52 MB

     Dynamical RAM for      wfcinit/wfcrot:       0.52 MB

     Estimated static dynamical RAM per process >      32.63 MB

     Estimated max dynamical RAM per process >      35.30 MB

     Initial potential from superposition of free atoms

     starting charge       7.9989, renormalised to       8.0000
     Starting wfcs are    8 randomized atomic wfcs

     total cpu time spent up to now is        0.5 secs

     Self-consistent Calculation

     iteration #  1     ecut=    60.00 Ry     beta= 0.40
     Davidson diagonalization with overlap

---- Real-time Memory Report at c_bands before calling an iterative solver
           139 MiB given to the printing process from OS
             0 MiB allocation reported by mallinfo(arena+hblkhd)
        115149 MiB available memory on the node where the printing process lives
------------------
     ethr =  1.00E-02,  avg # of iterations =  4.7

     Threshold (ethr) on eigenvalues was too large:
     Diagonalizing with lowered threshold

     Davidson diagonalization with overlap

---- Real-time Memory Report at c_bands before calling an iterative solver
           141 MiB given to the printing process from OS
             0 MiB allocation reported by mallinfo(arena+hblkhd)
        115126 MiB available memory on the node where the printing process lives
------------------
     ethr =  6.80E-04,  avg # of iterations =  1.6

     total cpu time spent up to now is        2.9 secs

     WARNING: integrated charge=     8.00017056, expected=     8.00000000

     total energy              =     -17.05325031 Ry
     estimated scf accuracy    <       0.05832819 Ry

     iteration #  2     ecut=    60.00 Ry     beta= 0.40
     Davidson diagonalization with overlap

---- Real-time Memory Report at c_bands before calling an iterative solver
           142 MiB given to the printing process from OS
             0 MiB allocation reported by mallinfo(arena+hblkhd)
        115121 MiB available memory on the node where the printing process lives
------------------
     ethr =  7.29E-04,  avg # of iterations =  1.0

     total cpu time spent up to now is        3.7 secs

     WARNING: integrated charge=     8.00135751, expected=     8.00000000

     total energy              =     -17.04870650 Ry
     estimated scf accuracy    <       0.01554450 Ry

     iteration #  3     ecut=    60.00 Ry     beta= 0.40
     Davidson diagonalization with overlap

---- Real-time Memory Report at c_bands before calling an iterative solver
           142 MiB given to the printing process from OS
             0 MiB allocation reported by mallinfo(arena+hblkhd)
        115124 MiB available memory on the node where the printing process lives
------------------
     ethr =  1.94E-04,  avg # of iterations =  1.8

     total cpu time spent up to now is        4.7 secs

     WARNING: integrated charge=     8.00012298, expected=     8.00000000

     total energy              =     -17.05042228 Ry
     estimated scf accuracy    <       0.00026643 Ry

     iteration #  4     ecut=    60.00 Ry     beta= 0.40
     Davidson diagonalization with overlap

---- Real-time Memory Report at c_bands before calling an iterative solver
           142 MiB given to the printing process from OS
             0 MiB allocation reported by mallinfo(arena+hblkhd)
        115134 MiB available memory on the node where the printing process lives
------------------
     ethr =  3.33E-06,  avg # of iterations =  5.6

     total cpu time spent up to now is        6.1 secs

     WARNING: integrated charge=     8.00172368, expected=     8.00000000

     total energy              =     -17.04882577 Ry
     estimated scf accuracy    <       0.00002151 Ry

     iteration #  5     ecut=    60.00 Ry     beta= 0.40
     Davidson diagonalization with overlap

---- Real-time Memory Report at c_bands before calling an iterative solver
           142 MiB given to the printing process from OS
             0 MiB allocation reported by mallinfo(arena+hblkhd)
        115120 MiB available memory on the node where the printing process lives
------------------
     ethr =  2.69E-07,  avg # of iterations =  1.7

     total cpu time spent up to now is        7.0 secs

     WARNING: integrated charge=     8.00326697, expected=     8.00000000

     total energy              =     -17.04877194 Ry
     estimated scf accuracy    <       0.00000059 Ry

     iteration #  6     ecut=    60.00 Ry     beta= 0.40
     Davidson diagonalization with overlap

---- Real-time Memory Report at c_bands before calling an iterative solver
           142 MiB given to the printing process from OS
             0 MiB allocation reported by mallinfo(arena+hblkhd)
        115134 MiB available memory on the node where the printing process lives
------------------
     ethr =  7.34E-09,  avg # of iterations =  2.1

     total cpu time spent up to now is        8.0 secs

     WARNING: integrated charge=     8.00368380, expected=     8.00000000

     total energy              =     -17.04877401 Ry
     estimated scf accuracy    <       0.00000017 Ry

     iteration #  7     ecut=    60.00 Ry     beta= 0.40
     Davidson diagonalization with overlap

---- Real-time Memory Report at c_bands before calling an iterative solver
           142 MiB given to the printing process from OS
             0 MiB allocation reported by mallinfo(arena+hblkhd)
        115149 MiB available memory on the node where the printing process lives
------------------
     ethr =  2.16E-09,  avg # of iterations =  1.4

     total cpu time spent up to now is        8.9 secs

     WARNING: integrated charge=     8.00376365, expected=     8.00000000

     total energy              =     -17.04877780 Ry
     estimated scf accuracy    <          2.0E-09 Ry

     iteration #  8     ecut=    60.00 Ry     beta= 0.40
     Davidson diagonalization with overlap

---- Real-time Memory Report at c_bands before calling an iterative solver
           143 MiB given to the printing process from OS
             0 MiB allocation reported by mallinfo(arena+hblkhd)
        115149 MiB available memory on the node where the printing process lives
------------------
     ethr =  2.56E-11,  avg # of iterations =  3.8

     total cpu time spent up to now is       10.1 secs

     End of self-consistent calculation

          k = 0.0000 0.0000 0.0000 (  2109 PWs)   bands (ev):

    -5.9256   6.0357   6.0357   6.0357   8.5699   8.5699   8.5699   9.2044

     occupation numbers 
     1.0000   1.0606   1.0606   1.0606   0.0000   0.0000   0.0000   0.0000

          k = 0.0505 0.0505-0.0505 (  2097 PWs)   bands (ev):

    -5.8588   5.3591   5.9272   5.9272   8.6015   8.7289   8.7289   9.7257

     occupation numbers 
     1.0000   1.0001   1.0800   1.0800   0.0000   0.0000   0.0000   0.0000

          k = 0.1010 0.1010-0.1010 (  2106 PWs)   bands (ev):

    -5.6597   4.0865   5.6785   5.6785   8.3877   9.0901   9.0901  10.9067

     occupation numbers 
     1.0000   1.0000   1.0121   1.0121   0.0000   0.0000   0.0000   0.0000

          k = 0.1515 0.1515-0.1515 (  2115 PWs)   bands (ev):

    -5.3335   2.7420   5.4035   5.4035   8.0967   9.4201   9.4201  12.1761

     occupation numbers 
     1.0000   1.0000   1.0002   1.0002   0.0000   0.0000   0.0000   0.0000

          k = 0.2020 0.2020-0.2020 (  2115 PWs)   bands (ev):

    -4.8928   1.4631   5.1642   5.1642   7.8295   9.5396   9.5396  13.3214

     occupation numbers 
     1.0000   1.0000   1.0000   1.0000   0.0000   0.0000   0.0000   0.0000

          k = 0.2525 0.2525-0.2525 (  2108 PWs)   bands (ev):

    -4.3681   0.3225   4.9857   4.9857   7.6250   9.4805   9.4805  13.7462

     occupation numbers 
     1.0000   1.0000   1.0000   1.0000   0.0000   0.0000   0.0000   0.0000

          k = 0.3030 0.3030-0.3030 (  2111 PWs)   bands (ev):

    -3.8486  -0.5722   4.8770   4.8770   7.4986   9.3849   9.3849  13.6314

     occupation numbers 
     1.0000   1.0000   1.0000   1.0000   0.0000   0.0000   0.0000   0.0000

          k =-0.3536-0.3536 0.3536 (  2120 PWs)   bands (ev):

    -3.5909  -0.9557   4.8406   4.8406   7.4560   9.3441   9.3441  13.5677

     occupation numbers 
     1.0000   1.0000   1.0000   1.0000   0.0000   0.0000   0.0000   0.0000

          k = 0.1010 0.0000 0.0000 (  2101 PWs)   bands (ev):

    -5.8364   5.4894   5.7032   5.7032   8.3524   9.0104   9.0104   9.7205

     occupation numbers 
     1.0000   1.0008   1.0161   1.0161   0.0000   0.0000   0.0000   0.0000

          k = 0.1515 0.0505-0.0505 (  2115 PWs)   bands (ev):

    -5.6811   4.4636   5.3987   5.5783   8.3485   9.0757   9.4510  10.5662

     occupation numbers 
     1.0000   1.0000   1.0001   1.0032   0.0000   0.0000   0.0000   0.0000

          k = 0.2020 0.1010-0.1010 (  2105 PWs)   bands (ev):

    -5.3967   3.1698   5.1099   5.3289   8.4344   9.0719   9.8471  11.3552

     occupation numbers 
     1.0000   1.0000   1.0000   1.0000   0.0000   0.0000   0.0000   0.0000

          k = 0.2525 0.1515-0.1515 (  2117 PWs)   bands (ev):

    -4.9924   1.8855   4.8833   5.0293   8.2856   9.2364  10.0116  11.7868

     occupation numbers 
     1.0000   1.0000   1.0000   1.0000   0.0000   0.0000   0.0000   0.0000

          k = 0.3030 0.2020-0.2020 (  2115 PWs)   bands (ev):

    -4.4903   0.7040   4.7380   4.7530   8.0931   9.2772   9.9343  12.4770

     occupation numbers 
     1.0000   1.0000   1.0000   1.0000   0.0000   0.0000   0.0000   0.0000

          k = 0.3536 0.2525-0.2525 (  2110 PWs)   bands (ev):

    -3.9516  -0.2843   4.5312   4.6797   7.9512   9.2448   9.7603  13.3515

     occupation numbers 
     1.0000   1.0000   1.0000   1.0000   0.0000   0.0000   0.0000   0.0000

          k =-0.3030-0.4041 0.4041 (  2109 PWs)   bands (ev):

    -3.5640  -0.8783   4.3787   4.7070   7.8839   9.2548   9.6068  13.7806

     occupation numbers 
     1.0000   1.0000   1.0000   1.0000   0.0000   0.0000   0.0000   0.0000

          k =-0.2525-0.3536 0.3536 (  2116 PWs)   bands (ev):

    -3.6557  -0.7448   4.3052   4.8145   7.8982   9.3504   9.5237  13.8305

     occupation numbers 
     1.0000   1.0000   1.0000   1.0000   0.0000   0.0000   0.0000   0.0000

          k =-0.2020-0.3030 0.3030 (  2118 PWs)   bands (ev):

    -4.1288   0.0173   4.3179   4.9935   7.9936   9.5065   9.5193  13.6240

     occupation numbers 
     1.0000   1.0000   1.0000   1.0000   0.0000   0.0000   0.0000   0.0000

          k =-0.1515-0.2525 0.2525 (  2121 PWs)   bands (ev):

    -4.6668   1.0836   4.4222   5.2312   8.1652   9.4894   9.6869  12.9060

     occupation numbers 
     1.0000   1.0000   1.0000   1.0000   0.0000   0.0000   0.0000   0.0000

          k =-0.1010-0.2020 0.2020 (  2112 PWs)   bands (ev):

    -5.1401   2.3047   4.6214   5.5062   8.3996   9.3458   9.6845  12.1299

     occupation numbers 
     1.0000   1.0000   1.0000   1.0010   0.0000   0.0000   0.0000   0.0000

          k =-0.0505-0.1515 0.1515 (  2105 PWs)   bands (ev):

    -5.5058   3.5886   4.9202   5.7754   8.6629   9.0363   9.3592  11.3601

     occupation numbers 
     1.0000   1.0000   1.0000   1.0331   0.0000   0.0000   0.0000   0.0000

          k =-0.0000-0.1010 0.1010 (  2115 PWs)   bands (ev):

    -5.7477   4.7430   5.3668   5.9520   8.7525   8.8602   8.8627  10.4113

     occupation numbers 
     1.0000   1.0000   1.0001   1.0830   0.0000   0.0000   0.0000   0.0000

          k = 0.2020 0.0000 0.0000 (  2109 PWs)   bands (ev):

    -5.5697   4.3825   5.0614   5.0614   7.8589   9.9719   9.9719  10.3301

     occupation numbers 
     1.0000   1.0000   1.0000   1.0000   0.0000   0.0000   0.0000   0.0000

          k = 0.2525 0.0505-0.0505 (  2109 PWs)   bands (ev):

    -5.3280   3.4342   4.7541   4.8062   7.8333   9.9197  10.4726  10.5708

     occupation numbers 
     1.0000   1.0000   1.0000   1.0000   0.0000   0.0000   0.0000   0.0000

          k = 0.3030 0.1010-0.1010 (  2104 PWs)   bands (ev):

    -4.9627   2.2602   4.4686   4.5197   8.0457   9.8669  10.5318  10.7517

     occupation numbers 
     1.0000   1.0000   1.0000   1.0000   0.0000   0.0000   0.0000   0.0000

          k = 0.3536 0.1515-0.1515 (  2119 PWs)   bands (ev):

    -4.4900   1.1029   4.1018   4.3768   8.1246   9.9014  10.7292  10.8344

     occupation numbers 
     1.0000   1.0000   1.0000   1.0000   0.0000   0.0000   0.0000   0.0000

          k = 0.4041 0.2020-0.2020 (  2109 PWs)   bands (ev):

    -3.9518   0.0726   3.7760   4.3324   8.0987   9.7908  10.5348  11.7444

     occupation numbers 
     1.0000   1.0000   1.0000   1.0000   0.0000   0.0000   0.0000   0.0000

          k =-0.2525-0.4546 0.4546 (  2112 PWs)   bands (ev):

    -3.4776  -0.6716   3.5231   4.3859   8.1058   9.7030  10.3139  12.9232

     occupation numbers 
     1.0000   1.0000   1.0000   1.0000   0.0000   0.0000   0.0000   0.0000

          k =-0.2020-0.4041 0.4041 (  2118 PWs)   bands (ev):

    -3.3893  -0.7959   3.3605   4.5318   8.1962   9.6946  10.1383  14.0847

     occupation numbers 
     1.0000   1.0000   1.0000   1.0000   0.0000   0.0000   0.0000   0.0000

          k =-0.1515-0.3536 0.3536 (  2122 PWs)   bands (ev):

    -3.7823  -0.2045   3.3022   4.7587   8.3699   9.7730  10.0188  13.5869

     occupation numbers 
     1.0000   1.0000   1.0000   1.0000   0.0000   0.0000   0.0000   0.0000

          k =-0.1010-0.3030 0.3030 (  2114 PWs)   bands (ev):

    -4.3213   0.7543   3.3636   5.0469   8.6038   9.8977   9.9017  12.5747

     occupation numbers 
     1.0000   1.0000   1.0000   1.0000   0.0000   0.0000   0.0000   0.0000

          k =-0.0505-0.2525 0.2525 (  2119 PWs)   bands (ev):

    -4.8213   1.8513   3.5781   5.3621   8.8582   9.6657   9.8884  11.8111

     occupation numbers 
     1.0000   1.0000   1.0000   1.0001   0.0000   0.0000   0.0000   0.0000

          k =-0.0000-0.2020 0.2020 (  2111 PWs)   bands (ev):

    -5.2234   2.8809   4.0556   5.6403   9.0219   9.2986   9.5225  11.5584

     occupation numbers 
     1.0000   1.0000   1.0000   1.0075   0.0000   0.0000   0.0000   0.0000

          k = 0.3030 0.0000 0.0000 (  2105 PWs)   bands (ev):

    -5.1287   3.1371   4.4268   4.4268   7.3251   9.6252  11.1281  11.1281

     occupation numbers 
     1.0000   1.0000   1.0000   1.0000   0.0000   0.0000   0.0000   0.0000

          k = 0.3536 0.0505-0.0505 (  2110 PWs)   bands (ev):

    -4.8039   2.3193   4.0679   4.1734   7.3383   9.2413  11.3925  11.6031

     occupation numbers 
     1.0000   1.0000   1.0000   1.0000   0.0000   0.0000   0.0000   0.0000

          k = 0.4041 0.1010-0.1010 (  2112 PWs)   bands (ev):

    -4.3650   1.3406   3.5892   4.0150   7.5628   9.3595  11.2824  11.7244

     occupation numbers 
     1.0000   1.0000   1.0000   1.0000   0.0000   0.0000   0.0000   0.0000

          k = 0.4546 0.1515-0.1515 (  2119 PWs)   bands (ev):

    -3.8411   0.3733   3.1251   3.9603   7.6467  10.1031  11.1073  11.5713

     occupation numbers 
     1.0000   1.0000   1.0000   1.0000   0.0000   0.0000   0.0000   0.0000

          k =-0.2020-0.5051 0.5051 (  2119 PWs)   bands (ev):

    -3.3187  -0.4300   2.7479   4.0108   7.7020  10.8831  11.3142  11.3263

     occupation numbers 
     1.0000   1.0000   1.0000   1.0000   0.0000   0.0000   0.0000   0.0000

          k =-0.1515-0.4546 0.4546 (  2121 PWs)   bands (ev):

    -3.0655  -0.7713   2.4867   4.1623   7.8410  10.8165  11.0920  12.6291

     occupation numbers 
     1.0000   1.0000   1.0000   1.0000   0.0000   0.0000   0.0000   0.0000

          k =-0.1010-0.4041 0.4041 (  2120 PWs)   bands (ev):

    -3.3453  -0.3829   2.3644   4.4042   8.0853  10.7820  10.8883  13.5230

     occupation numbers 
     1.0000   1.0000   1.0000   1.0000   0.0000   0.0000   0.0000   0.0000

          k =-0.0505-0.3536 0.3536 (  2116 PWs)   bands (ev):

    -3.8701   0.4127   2.4241   4.7163   8.4127  10.6424  10.7645  12.3986

     occupation numbers 
     1.0000   1.0000   1.0000   1.0000   0.0000   0.0000   0.0000   0.0000

          k = 0.0000-0.3030 0.3030 (  2115 PWs)   bands (ev):

    -4.3889   1.2419   2.7816   5.0600   8.7504  10.2024  10.4837  11.7343

     occupation numbers 
     1.0000   1.0000   1.0000   1.0000   0.0000   0.0000   0.0000   0.0000

          k = 0.4041 0.0000 0.0000 (  2113 PWs)   bands (ev):

    -4.5190   1.8602   3.8967   3.8967   6.8846   8.5599  12.3728  12.3728

     occupation numbers 
     1.0000   1.0000   1.0000   1.0000   0.0004   0.0000   0.0000   0.0000

          k = 0.4546 0.0505-0.0505 (  2112 PWs)   bands (ev):

    -4.1164   1.1413   3.4972   3.7143   6.9612   8.2833  12.6585  12.7855

     occupation numbers 
     1.0000   1.0000   1.0000   1.0000   0.0001   0.0000   0.0000   0.0000

          k = 0.5051 0.1010-0.1010 (  2122 PWs)   bands (ev):

    -3.6158   0.3605   2.9015   3.6374   7.1654   8.6557  12.5726  12.7685

     occupation numbers 
     1.0000   1.0000   1.0000   1.0000   0.0000   0.0000   0.0000   0.0000

          k =-0.1515-0.5556 0.5556 (  2124 PWs)   bands (ev):

    -3.0742  -0.3687   2.3443   3.6692   7.2568   9.6385  12.4149  12.5439

     occupation numbers 
     1.0000   1.0000   1.0000   1.0000   0.0000   0.0000   0.0000   0.0000

          k =-0.1010-0.5051 0.5051 (  2136 PWs)   bands (ev):

    -2.6937  -0.8211   1.9378   3.8072   7.4026  10.9029  12.2719  12.2997

     occupation numbers 
     1.0000   1.0000   1.0000   1.0000   0.0000   0.0000   0.0000   0.0000

          k =-0.0505-0.4546 0.4546 (  2132 PWs)   bands (ev):

    -2.8482  -0.6309   1.7441   4.0429   7.6597  11.9151  11.9679  12.6222

     occupation numbers 
     1.0000   1.0000   1.0000   1.0000   0.0000   0.0000   0.0000   0.0000

          k =-0.0000-0.4041 0.4041 (  2123 PWs)   bands (ev):

    -3.3460  -0.0687   1.8615   4.3580   8.0176  11.4506  11.7397  12.5322

     occupation numbers 
     1.0000   1.0000   1.0000   1.0000   0.0000   0.0000   0.0000   0.0000

          k = 0.5051 0.0000 0.0000 (  2112 PWs)   bands (ev):

    -3.7493   0.5920   3.5047   3.5047   6.6029   7.6685  13.6695  13.6695

     occupation numbers 
     1.0000   1.0000   1.0000   1.0000   0.0359   0.0000   0.0000   0.0000

          k = 0.5556 0.0505-0.0505 (  2124 PWs)   bands (ev):

    -3.2771  -0.0543   3.1175   3.4000   6.7453   7.5635  13.9806  14.0104

     occupation numbers 
     1.0000   1.0000   1.0000   1.0000   0.0046   0.0000   0.0000   0.0000

          k =-0.1010-0.6061 0.6061 (  2129 PWs)   bands (ev):

    -2.7360  -0.6784   2.4871   3.4054   6.9074   8.2325  13.8908  13.9151

     occupation numbers 
     1.0000   1.0000   1.0000   1.0000   0.0002   0.0000   0.0000   0.0000

          k =-0.0505-0.5556 0.5556 (  2121 PWs)   bands (ev):

    -2.2760  -1.1368   1.9223   3.5202   7.0477   9.4122  13.5852  13.7669

     occupation numbers 
     1.0000   1.0000   1.0000   1.0000   0.0000   0.0000   0.0000   0.0000

          k =-0.0000-0.5051 0.5051 (  2135 PWs)   bands (ev):

    -2.3727  -1.0188   1.6169   3.7378   7.2972  10.8140  13.0109  13.5108

     occupation numbers 
     1.0000   1.0000   1.0000   1.0000   0.0000   0.0000   0.0000   0.0000

          k = 0.6061 0.0000 0.0000 (  2120 PWs)   bands (ev):

    -2.8323  -0.6346   3.2653   3.2653   6.5169   7.0313  14.9941  14.9941

     occupation numbers 
     1.0000   1.0000   1.0000   1.0000   0.0967   0.0000   0.0000   0.0000

          k =-0.0505-0.6566 0.6566 (  2123 PWs)   bands (ev):

    -2.3033  -1.2159   2.9285   3.2407   6.6913   7.1427  15.2361  15.3083

     occupation numbers 
     1.0000   1.0000   1.0000   1.0000   0.0106   0.0000   0.0000   0.0000

          k = 0.0000-0.6061 0.6061 (  2127 PWs)   bands (ev):

    -1.8798  -1.5937   2.3512   3.3272   6.8180   8.0931  14.7783  15.1764

     occupation numbers 
     1.0000   1.0000   1.0000   1.0000   0.0013   0.0000   0.0000   0.0000

          k =-0.7071 0.0000 0.0000 (  2100 PWs)   bands (ev):

    -1.7861  -1.7861   3.1849   3.1849   6.6525   6.6525  16.0051  16.0051

     occupation numbers 
     1.0000   1.0000   1.0000   1.0000   0.0186   0.0186   0.0000   0.0000

          k = 0.2020 0.1010 0.0000 (  2111 PWs)   bands (ev):

    -5.4828   3.7652   4.7172   5.4964   8.3377   9.3611   9.8104  10.9486

     occupation numbers 
     1.0000   1.0000   1.0000   1.0009   0.0000   0.0000   0.0000   0.0000

          k = 0.2525 0.1515-0.0505 (  2103 PWs)   bands (ev):

    -5.1578   2.6731   4.2421   5.2898   8.5488   9.3485  10.2152  11.0324

     occupation numbers 
     1.0000   1.0000   1.0000   1.0000   0.0000   0.0000   0.0000   0.0000

          k = 0.3030 0.2020-0.1010 (  2112 PWs)   bands (ev):

    -4.7184   1.4875   3.9631   5.0092   8.5838   9.3589  10.3624  11.3425

     occupation numbers 
     1.0000   1.0000   1.0000   1.0000   0.0000   0.0000   0.0000   0.0000

          k = 0.3536 0.2525-0.1515 (  2118 PWs)   bands (ev):

    -4.1945   0.3888   3.7975   4.7511   8.4835   9.2828  10.3031  12.1338

     occupation numbers 
     1.0000   1.0000   1.0000   1.0000   0.0000   0.0000   0.0000   0.0000

          k =-0.3030-0.4041 0.5051 (  2120 PWs)   bands (ev):

    -3.6737  -0.4882   3.7142   4.5712   8.3979   9.1736  10.2063  13.1993

     occupation numbers 
     1.0000   1.0000   1.0000   1.0000   0.0000   0.0000   0.0000   0.0000

          k =-0.2525-0.3536 0.4546 (  2124 PWs)   bands (ev):

    -3.4135  -0.8686   3.6901   4.5063   8.3674   9.1277  10.1653  14.0204

     occupation numbers 
     1.0000   1.0000   1.0000   1.0000   0.0000   0.0000   0.0000   0.0000

          k = 0.3030 0.1010 0.0000 (  2105 PWs)   bands (ev):

    -5.0450   2.7306   4.0787   4.7268   7.8271   9.8172  10.5646  11.0123

     occupation numbers 
     1.0000   1.0000   1.0000   1.0000   0.0000   0.0000   0.0000   0.0000

          k = 0.3536 0.1515-0.0505 (  2114 PWs)   bands (ev):

    -4.6429   1.7647   3.6018   4.4960   8.0937   9.8428  10.3761  11.3868

     occupation numbers 
     1.0000   1.0000   1.0000   1.0000   0.0000   0.0000   0.0000   0.0000

          k = 0.4041 0.2020-0.1010 (  2117 PWs)   bands (ev):

    -4.1426   0.7355   3.2863   4.2538   8.2313  10.0806  10.4700  11.4413

     occupation numbers 
     1.0000   1.0000   1.0000   1.0000   0.0000   0.0000   0.0000   0.0000

          k =-0.2525-0.4546 0.5556 (  2118 PWs)   bands (ev):

    -3.6030  -0.1802   3.0549   4.1121   8.2747   9.8246  11.3291  11.5306

     occupation numbers 
     1.0000   1.0000   1.0000   1.0000   0.0000   0.0000   0.0000   0.0000

          k =-0.2020-0.4041 0.5051 (  2125 PWs)   bands (ev):

    -3.2116  -0.7470   2.8858   4.1102   8.3663   9.6179  11.2371  12.8000

     occupation numbers 
     1.0000   1.0000   1.0000   1.0000   0.0000   0.0000   0.0000   0.0000

          k =-0.1515-0.3536 0.4546 (  2123 PWs)   bands (ev):

    -3.3107  -0.6074   2.7933   4.2421   8.5468   9.4881  11.1781  13.1320

     occupation numbers 
     1.0000   1.0000   1.0000   1.0000   0.0000   0.0000   0.0000   0.0000

          k =-0.1010-0.3030 0.4041 (  2119 PWs)   bands (ev):

    -3.7903   0.1214   2.8074   4.4812   8.8024   9.4281  11.1383  11.9559

     occupation numbers 
     1.0000   1.0000   1.0000   1.0000   0.0000   0.0000   0.0000   0.0000

          k =-0.0505-0.2525 0.3536 (  2112 PWs)   bands (ev):

    -4.3269   1.0744   2.9766   4.7878   9.0701   9.3523  10.9410  11.1811

     occupation numbers 
     1.0000   1.0000   1.0000   1.0000   0.0000   0.0000   0.0000   0.0000

          k =-0.0000-0.2020 0.3030 (  2111 PWs)   bands (ev):

    -4.7961   1.9982   3.4144   5.0960   8.9467   9.3576  10.7200  10.7806

     occupation numbers 
     1.0000   1.0000   1.0000   1.0000   0.0000   0.0000   0.0000   0.0000

          k = 0.4041 0.1010 0.0000 (  2109 PWs)   bands (ev):

    -4.4408   1.6393   3.5535   4.0065   7.3970   8.8886  11.5278  12.3053

     occupation numbers 
     1.0000   1.0000   1.0000   1.0000   0.0000   0.0000   0.0000   0.0000

          k = 0.4546 0.1515-0.0505 (  2114 PWs)   bands (ev):

    -3.9707   0.8270   3.0542   3.7824   7.6901   9.0528  11.3260  12.6580

     occupation numbers 
     1.0000   1.0000   1.0000   1.0000   0.0000   0.0000   0.0000   0.0000

          k =-0.2020-0.5051 0.6061 (  2123 PWs)   bands (ev):

    -3.4327   0.0046   2.6118   3.6624   7.8172   9.8770  11.0659  12.6546

     occupation numbers 
     1.0000   1.0000   1.0000   1.0000   0.0000   0.0000   0.0000   0.0000

          k =-0.1515-0.4546 0.5556 (  2128 PWs)   bands (ev):

    -2.9544  -0.6365   2.2657   3.6882   7.9298  10.6856  11.2162  12.5421

     occupation numbers 
     1.0000   1.0000   1.0000   1.0000   0.0000   0.0000   0.0000   0.0000

          k =-0.1010-0.4041 0.5051 (  2128 PWs)   bands (ev):

    -2.8836  -0.7188   2.0551   3.8456   8.1338  10.5469  12.3548  12.5763

     occupation numbers 
     1.0000   1.0000   1.0000   1.0000   0.0000   0.0000   0.0000   0.0000

          k =-0.0505-0.3536 0.4546 (  2121 PWs)   bands (ev):

    -3.2995  -0.1794   2.0302   4.1103   8.4385  10.3755  11.8491  12.2990

     occupation numbers 
     1.0000   1.0000   1.0000   1.0000   0.0000   0.0000   0.0000   0.0000

          k = 0.0000-0.3030 0.4041 (  2117 PWs)   bands (ev):

    -3.8370   0.5207   2.2958   4.4465   8.8093   9.9926  11.1032  11.8713

     occupation numbers 
     1.0000   1.0000   1.0000   1.0000   0.0000   0.0000   0.0000   0.0000

          k = 0.5051 0.1010-0.0000 (  2116 PWs)   bands (ev):

    -3.6800   0.4992   3.1781   3.4547   7.1131   8.0510  12.6722  13.6445

     occupation numbers 
     1.0000   1.0000   1.0000   1.0000   0.0000   0.0000   0.0000   0.0000

          k =-0.1515-0.5556 0.6566 (  2119 PWs)   bands (ev):

    -3.1575  -0.1706   2.6404   3.3048   7.4055   8.4658  12.4334  13.9865

     occupation numbers 
     1.0000   1.0000   1.0000   1.0000   0.0000   0.0000   0.0000   0.0000

          k =-0.1010-0.5051 0.6061 (  2124 PWs)   bands (ev):

    -2.6315  -0.7646   2.0953   3.3315   7.5383   9.5328  12.1637  13.9286

     occupation numbers 
     1.0000   1.0000   1.0000   1.0000   0.0000   0.0000   0.0000   0.0000

          k =-0.0505-0.4546 0.5556 (  2126 PWs)   bands (ev):

    -2.4192  -0.9767   1.7308   3.4907   7.7371  10.8439  11.9465  13.2305

     occupation numbers 
     1.0000   1.0000   1.0000   1.0000   0.0000   0.0000   0.0000   0.0000

          k =-0.0000-0.4041 0.5051 (  2122 PWs)   bands (ev):

    -2.7763  -0.6104   1.6665   3.7604   8.0449  11.3447  12.1343  12.5050

     occupation numbers 
     1.0000   1.0000   1.0000   1.0000   0.0000   0.0000   0.0000   0.0000

          k =-0.1010-0.6061 0.7071 (  2129 PWs)   bands (ev):

    -2.7780  -0.6500   2.9703   3.1002   7.0125   7.4614  13.8872  14.9884

     occupation numbers 
     1.0000   1.0000   1.0000   1.0000   0.0000   0.0000   0.0000   0.0000

          k =-0.0505-0.5556 0.6566 (  2131 PWs)   bands (ev):

    -2.2330  -1.1983   2.4170   3.0773   7.2607   8.1694  13.6319  14.8546

     occupation numbers 
     1.0000   1.0000   1.0000   1.0000   0.0000   0.0000   0.0000   0.0000

          k =-0.0000-0.5051 0.6061 (  2130 PWs)   bands (ev):

    -2.0076  -1.3733   1.9066   3.2266   7.4416   9.4201  13.2167  13.5690

     occupation numbers 
     1.0000   1.0000   1.0000   1.0000   0.0000   0.0000   0.0000   0.0000

          k =-0.7071 0.1010 0.0000 (  2130 PWs)   bands (ev):

    -1.7571  -1.7571   2.9413   2.9413   7.1212   7.1212  15.1338  15.1338

     occupation numbers 
     1.0000   1.0000   1.0000   1.0000   0.0000   0.0000   0.0000   0.0000

          k = 0.4041 0.2020 0.0000 (  2118 PWs)   bands (ev):

    -4.2096   1.1248   2.9018   4.2427   8.5539   9.7900  10.1135  12.1207

     occupation numbers 
     1.0000   1.0000   1.0000   1.0000   0.0000   0.0000   0.0000   0.0000

          k =-0.2525-0.4546 0.6566 (  2118 PWs)   bands (ev):

    -3.6900   0.3365   2.5041   3.9329   8.8956   9.7646  10.3364  12.4977

     occupation numbers 
     1.0000   1.0000   1.0000   1.0000   0.0000   0.0000   0.0000   0.0000

          k =-0.2020-0.4041 0.6061 (  2127 PWs)   bands (ev):

    -3.1645  -0.4098   2.3263   3.7014   9.0324   9.4494  11.4314  12.5710

     occupation numbers 
     1.0000   1.0000   1.0000   1.0000   0.0000   0.0000   0.0000   0.0000

          k =-0.1515-0.3536 0.5556 (  2130 PWs)   bands (ev):

    -2.8933  -0.7633   2.2773   3.6167   9.1693   9.2307  12.5661  12.9726

     occupation numbers 
     1.0000   1.0000   1.0000   1.0000   0.0000   0.0000   0.0000   0.0000

          k =-0.2020-0.5051 0.7071 (  2121 PWs)   bands (ev):

    -3.4783   0.2270   2.5606   3.4317   8.2823   9.0473  11.0366  13.5694

     occupation numbers 
     1.0000   1.0000   1.0000   1.0000   0.0000   0.0000   0.0000   0.0000

          k =-0.1515-0.4546 0.6566 (  2131 PWs)   bands (ev):

    -2.9382  -0.4086   2.1883   3.1746   8.6104   9.7797  10.7453  13.9542

     occupation numbers 
     1.0000   1.0000   1.0000   1.0000   0.0000   0.0000   0.0000   0.0000

          k =-0.1010-0.4041 0.6061 (  2134 PWs)   bands (ev):

    -2.5337  -0.8608   1.9381   3.1223   8.7835  10.3189  11.1881  12.9128

     occupation numbers 
     1.0000   1.0000   1.0000   1.0000   0.0000   0.0000   0.0000   0.0000

          k =-0.0505-0.3536 0.5556 (  2133 PWs)   bands (ev):

    -2.6658  -0.7111   1.8498   3.2665   9.0342  10.1352  11.4533  12.6738

     occupation numbers 
     1.0000   1.0000   1.0000   1.0000   0.0000   0.0000   0.0000   0.0000

          k =-0.0000-0.3030 0.5051 (  2119 PWs)   bands (ev):

    -3.1641  -0.1727   2.0090   3.5598   9.3723   9.7540  10.5008  13.4405

     occupation numbers 
     1.0000   1.0000   1.0000   1.0000   0.0000   0.0000   0.0000   0.0000

          k =-0.1010-0.5051 0.7071 (  2128 PWs)   bands (ev):

    -2.6256  -0.7188   2.4176   2.8332   8.1718   8.5341  12.1189  14.6140

     occupation numbers 
     1.0000   1.0000   1.0000   1.0000   0.0000   0.0000   0.0000   0.0000

          k =-0.0505-0.4546 0.6566 (  2142 PWs)   bands (ev):

    -2.1336  -1.1857   2.0371   2.7378   8.4585   9.5541  11.8255  13.0820

     occupation numbers 
     1.0000   1.0000   1.0000   1.0000   0.0000   0.0000   0.0000   0.0000

          k =-0.0000-0.4041 0.6061 (  2129 PWs)   bands (ev):

    -2.1856  -1.1165   1.7687   2.9250   8.6976  10.8012  11.6147  11.7486

     occupation numbers 
     1.0000   1.0000   1.0000   1.0000   0.0000   0.0000   0.0000   0.0000

          k =-0.7071 0.2020 0.0000 (  2144 PWs)   bands (ev):

    -1.6883  -1.6883   2.4992   2.4992   8.2486   8.2486  13.3343  13.3343

     occupation numbers 
     1.0000   1.0000   1.0000   1.0000   0.0000   0.0000   0.0000   0.0000

          k =-0.1010-0.4041 0.7071 (  2146 PWs)   bands (ev):

    -2.4094  -0.8780   1.9634   2.7516   9.6461   9.8301  10.5183  12.8279

     occupation numbers 
     1.0000   1.0000   1.0000   1.0000   0.0000   0.0000   0.0000   0.0000

          k =-0.0505-0.3536 0.6566 (  2142 PWs)   bands (ev):

    -2.0837  -1.1852   1.9074   2.5814   9.7983  10.1343  11.1074  11.5298

     occupation numbers 
     1.0000   1.0000   1.0000   1.0000   0.0000   0.0000   0.0000   0.0000

          k =-0.7071 0.3030 0.0000 (  2154 PWs)   bands (ev):

    -1.6288  -1.6288   2.2027   2.2027   9.6901   9.6901  11.5465  11.5465

     occupation numbers 
     1.0000   1.0000   1.0000   1.0000   0.0000   0.0000   0.0000   0.0000

     the Fermi energy is     6.3460 ev

     WARNING: integrated charge=     8.00376458, expected=     8.00000000

!    total energy              =     -17.04877807 Ry
     estimated scf accuracy    <          2.8E-11 Ry
     smearing contrib. (-TS)   =       0.00010531 Ry
     internal energy E=F+TS    =     -17.04888338 Ry

     The total energy is F=E-TS. E is the sum of the following terms:
     one-electron contribution =       4.85343759 Ry
     hartree contribution      =       1.09568765 Ry
     xc contribution           =      -6.20068077 Ry
     ewald contribution        =     -16.79732785 Ry

     convergence has been achieved in   8 iterations

     Forces acting on atoms (cartesian axes, Ry/au):

     atom    1 type  1   force =     0.00000000   -0.00000000    0.00000000
     atom    2 type  1   force =    -0.00000000    0.00000000   -0.00000000
     The non-local contrib.  to forces
     atom    1 type  1   force =    -0.00000000    0.00000000   -0.00000000
     atom    2 type  1   force =     0.00000000   -0.00000000    0.00000000
     The ionic contribution  to forces
     atom    1 type  1   force =     0.00000000    0.00000000    0.00000000
     atom    2 type  1   force =    -0.00000000   -0.00000000   -0.00000000
     The local contribution  to forces
     atom    1 type  1   force =     0.00000000    0.00000000    0.00000000
     atom    2 type  1   force =    -0.00000000   -0.00000000   -0.00000000
     The core correction contribution to forces
     atom    1 type  1   force =    -0.00000000   -0.00000000   -0.00000000
     atom    2 type  1   force =     0.00000000    0.00000000    0.00000000
     The Hubbard contrib.    to forces
     atom    1 type  1   force =     0.00000000    0.00000000    0.00000000
     atom    2 type  1   force =     0.00000000    0.00000000    0.00000000
     The SCF correction term to forces
     atom    1 type  1   force =    -0.00000000   -0.00000000   -0.00000000
     atom    2 type  1   force =     0.00000000    0.00000000    0.00000000

     Total force =     0.000000     Total SCF correction =     0.000000


     Computing stress (Cartesian axis) and pressure

          total   stress  (Ry/bohr**3)                   (kbar)     P=      -17.07
  -0.00011603   0.00000000   0.00000000          -17.07        0.00        0.00
   0.00000000  -0.00011603   0.00000000            0.00      -17.07        0.00
   0.00000000  -0.00000000  -0.00011603            0.00       -0.00      -17.07

     kinetic stress (kbar)   2236.20      0.00      0.00
                                0.00   2236.20      0.00
                                0.00      0.00   2236.20

     local   stress (kbar)   -419.03     -0.00     -0.00
                               -0.00   -419.03     -0.00
                               -0.00     -0.00   -419.03

     nonloc. stress (kbar)   1972.93     -0.00      0.00
                                0.00   1972.93      0.00
                                0.00      0.00   1972.93

     hartree stress (kbar)    198.85     -0.00     -0.00
                               -0.00    198.85     -0.00
                               -0.00     -0.00    198.85

     exc-cor stress (kbar)   -150.22      0.00      0.00
                                0.00   -150.22      0.00
                                0.00      0.00   -150.22

     corecor stress (kbar)   -807.30     -0.00     -0.00
                               -0.00   -807.30     -0.00
                               -0.00     -0.00   -807.30

     ewald   stress (kbar)  -3048.49      0.00      0.00
                                0.00  -3048.49      0.00
                                0.00      0.00  -3048.49

     hubbard stress (kbar)      0.00      0.00      0.00
                                0.00      0.00      0.00
                                0.00      0.00      0.00

     DFT-D   stress (kbar)      0.00      0.00      0.00
                                0.00      0.00      0.00
                                0.00      0.00      0.00

     XDM     stress (kbar)      0.00      0.00      0.00
                                0.00      0.00      0.00
                                0.00      0.00      0.00

     dft-nl  stress (kbar)      0.00      0.00      0.00
                                0.00      0.00      0.00
                                0.00      0.00      0.00

     TS-vdW  stress (kbar)      0.00      0.00      0.00
                                0.00      0.00      0.00
                                0.00      0.00      0.00

     MDB     stress (kbar)      0.00      0.00      0.00
                                0.00      0.00      0.00
                                0.00      0.00      0.00

     3D-RISM stress (kbar)      0.00      0.00      0.00
                                0.00      0.00      0.00
                                0.00      0.00      0.00


     Writing all to output data dir ./out/aiida.save/ :
     XML data file, charge density, pseudopotentials, collected wavefunctions
 
     init_run     :      0.46s CPU      0.51s WALL (       1 calls)
     electrons    :      9.48s CPU      9.56s WALL (       1 calls)
     forces       :      0.16s CPU      0.16s WALL (       1 calls)
     stress       :      0.86s CPU      0.90s WALL (       1 calls)

     Called by init_run:
     wfcinit      :      0.40s CPU      0.45s WALL (       1 calls)
     wfcinit:atom :      0.02s CPU      0.02s WALL (     104 calls)
     wfcinit:wfcr :      0.27s CPU      0.29s WALL (     104 calls)
     potinit      :      0.01s CPU      0.01s WALL (       1 calls)
     hinit0       :      0.03s CPU      0.03s WALL (       1 calls)

     Called by electrons:
     c_bands      :      8.05s CPU      8.11s WALL (       9 calls)
     sum_band     :      1.41s CPU      1.42s WALL (       9 calls)
     v_of_rho     :      0.02s CPU      0.02s WALL (       9 calls)
     v_h          :      0.00s CPU      0.00s WALL (       9 calls)
     v_xc         :      0.02s CPU      0.02s WALL (      11 calls)
     mix_rho      :      0.00s CPU      0.01s WALL (       9 calls)

     Called by c_bands:
     init_us_2    :      0.95s CPU      0.98s WALL (    2184 calls)
     cegterg      :      6.13s CPU      6.18s WALL (     936 calls)

     Called by sum_band:
     sum_band:wei :      0.01s CPU      0.01s WALL (       9 calls)
     sum_band:loo :      1.39s CPU      1.40s WALL (       9 calls)
     sum_band:buf :      0.03s CPU      0.03s WALL (     936 calls)
     sum_band:ini :      0.40s CPU      0.41s WALL (     936 calls)

     Called by *egterg:
     cdiaghg      :      0.23s CPU      0.23s WALL (    3311 calls)
     cegterg:over :      0.28s CPU      0.28s WALL (    2479 calls)
     cegterg:upda :      0.12s CPU      0.12s WALL (    2479 calls)
     cegterg:last :      0.13s CPU      0.13s WALL (    1815 calls)
     h_psi        :      5.41s CPU      5.48s WALL (    3519 calls)
     g_psi        :      0.06s CPU      0.06s WALL (    2479 calls)

     Called by h_psi:
     h_psi:calbec :      0.36s CPU      0.37s WALL (    3519 calls)
     vloc_psi     :      4.65s CPU      4.72s WALL (    3519 calls)
                                        0.00s GPU  (    3519 calls)
     add_vuspsi   :      0.35s CPU      0.35s WALL (    3519 calls)

     General routines
     calbec       :      0.59s CPU      0.61s WALL (    5287 calls)
     fft          :      0.00s CPU      0.01s WALL (      35 calls)
     ffts         :      0.00s CPU      0.00s WALL (       9 calls)
     fftw         :      4.40s CPU      4.45s WALL (   47754 calls)
 
     Parallel routines
 
     PWSCF        :     11.01s CPU     11.21s WALL

 
   This run was terminated on:  14:18:55   4Feb2026            

=------------------------------------------------------------------------------=
   JOB DONE.
=------------------------------------------------------------------------------=
