
     Program PWSCF v.7.4.1 starts on 16Mar2026 at 13:59: 0 

     This program is part of the open-source Quantum ESPRESSO suite
     for quantum simulation of materials; please cite
         "P. Giannozzi et al., J. Phys.:Condens. Matter 21 395502 (2009);
         "P. Giannozzi et al., J. Phys.:Condens. Matter 29 465901 (2017);
         "P. Giannozzi et al., J. Chem. Phys. 152 154105 (2020);
          URL http://www.quantum-espresso.org", 
     in publications or presentations arising from this work. More details at
     http://www.quantum-espresso.org/quote

     Parallel version (MPI), running on     1 processors

     MPI processes distributed on     1 nodes
     71099 MiB available memory on the printing compute node when the environment starts
 
     Reading input from aiida.in

     Current dimensions of program PWSCF are:
     Max number of different atomic species (ntypx) = 10
     Max number of k-points (npk) =  40000
     Max angular momentum in pseudopotentials (lmaxx) =  4
     Message from routine set_cutoff:
     ecutrho < 4*ecutwfc, are you sure?
 
     Subspace diagonalization in iterative solution of the eigenvalue problem:
     a serial algorithm will be used

 
     G-vector sticks info
     --------------------
     sticks:   dense  smooth     PW     G-vecs:    dense   smooth      PW
     Sum         463     463    283                 6615     6615    3143
 
     Using Slab Decomposition
 


     bravais-lattice index     =            0
     lattice parameter (alat)  =       7.2565  a.u.
     unit-cell volume          =     270.1851 (a.u.)^3
     number of atoms/cell      =            2
     number of atomic types    =            1
     number of electrons       =         8.00
     number of Kohn-Sham states=           16
     kinetic-energy cutoff     =      60.0000  Ry
     charge density cutoff     =     128.0000  Ry
     scf convergence threshold =      4.0E-10
     mixing beta               =       0.4000
     number of iterations used =            8  plain     mixing
     Exchange-correlation= SLA  PW   NOGX NOGC
                           (   1   4   0   0   0   0   0)

     celldm(1)=   7.256471  celldm(2)=   0.000000  celldm(3)=   0.000000
     celldm(4)=   0.000000  celldm(5)=   0.000000  celldm(6)=   0.000000

     crystal axes: (cart. coord. in units of alat)
               a(1) = (  -0.707107   0.000000   0.707107 )  
               a(2) = (   0.000000   0.707107   0.707107 )  
               a(3) = (  -0.707107   0.707107   0.000000 )  

     reciprocal axes: (cart. coord. in units 2 pi/alat)
               b(1) = ( -0.707107 -0.707107  0.707107 )  
               b(2) = (  0.707107  0.707107  0.707107 )  
               b(3) = ( -0.707107  0.707107 -0.707107 )  


     PseudoPot. # 1 for Si read from file:
     ./pseudo/Si.upf
     MD5 check sum: 9e2d726316af3d4752eea8ab0afbb951
     Pseudo is Norm-conserving + core correction, Zval =  4.0
     Generated using ONCVPSP code by D. R. Hamann
     Using radial grid of 1510 points,  6 beta functions with: 
                l(1) =   0
                l(2) =   0
                l(3) =   1
                l(4) =   1
                l(5) =   2
                l(6) =   2

     atomic species   valence    mass     pseudopotential
     Si                4.00    28.08550     Si( 1.00)

     No symmetry found


                                    s                        frac. trans.

      isym =  1     identity                                     

 cryst.   s( 1) = (     1          0          0      )
                  (     0          1          0      )
                  (     0          0          1      )

 cart.    s( 1) = (  1.0000000  0.0000000  0.0000000 )
                  (  0.0000000  1.0000000  0.0000000 )
                  (  0.0000000  0.0000000  1.0000000 )


   Cartesian axes

     site n.     atom                  positions (alat units)
         1        Si     tau(   1) = (   0.0000000   0.0000000   0.0000000  )
         2        Si     tau(   2) = (  -0.3535534   0.3535534   0.3535534  )

   Crystallographic axes

     site n.     atom                  positions (cryst. coord.)
         1        Si     tau(   1) = (  0.0000000  0.0000000  0.0000000  )
         2        Si     tau(   2) = (  0.2500000  0.2500000  0.2500000  )

     number of k points=  1331  Marzari-Vanderbilt smearing, width (Ry)=  0.0200
                       cart. coord. in units 2pi/alat
        k(    1) = (   0.0000000   0.0000000   0.0000000), wk =   0.0015026
        k(    2) = (  -0.0642824   0.0642824  -0.0642824), wk =   0.0015026
        k(    3) = (  -0.1285649   0.1285649  -0.1285649), wk =   0.0015026
        k(    4) = (  -0.1928473   0.1928473  -0.1928473), wk =   0.0015026
        k(    5) = (  -0.2571297   0.2571297  -0.2571297), wk =   0.0015026
        k(    6) = (  -0.3214122   0.3214122  -0.3214122), wk =   0.0015026
        k(    7) = (  -0.3856946   0.3856946  -0.3856946), wk =   0.0015026
        k(    8) = (  -0.4499770   0.4499770  -0.4499770), wk =   0.0015026
        k(    9) = (  -0.5142595   0.5142595  -0.5142595), wk =   0.0015026
        k(   10) = (  -0.5785419   0.5785419  -0.5785419), wk =   0.0015026
        k(   11) = (  -0.6428243   0.6428243  -0.6428243), wk =   0.0015026
        k(   12) = (   0.0642824   0.0642824   0.0642824), wk =   0.0015026
        k(   13) = (   0.0000000   0.1285649   0.0000000), wk =   0.0015026
        k(   14) = (  -0.0642824   0.1928473  -0.0642824), wk =   0.0015026
        k(   15) = (  -0.1285649   0.2571297  -0.1285649), wk =   0.0015026
        k(   16) = (  -0.1928473   0.3214122  -0.1928473), wk =   0.0015026
        k(   17) = (  -0.2571297   0.3856946  -0.2571297), wk =   0.0015026
        k(   18) = (  -0.3214122   0.4499770  -0.3214122), wk =   0.0015026
        k(   19) = (  -0.3856946   0.5142595  -0.3856946), wk =   0.0015026
        k(   20) = (  -0.4499770   0.5785419  -0.4499770), wk =   0.0015026
        k(   21) = (  -0.5142595   0.6428243  -0.5142595), wk =   0.0015026
        k(   22) = (  -0.5785419   0.7071068  -0.5785419), wk =   0.0015026
        k(   23) = (   0.1285649   0.1285649   0.1285649), wk =   0.0015026
        k(   24) = (   0.0642824   0.1928473   0.0642824), wk =   0.0015026
        k(   25) = (   0.0000000   0.2571297   0.0000000), wk =   0.0015026
        k(   26) = (  -0.0642824   0.3214122  -0.0642824), wk =   0.0015026
        k(   27) = (  -0.1285649   0.3856946  -0.1285649), wk =   0.0015026
        k(   28) = (  -0.1928473   0.4499770  -0.1928473), wk =   0.0015026
        k(   29) = (  -0.2571297   0.5142595  -0.2571297), wk =   0.0015026
        k(   30) = (  -0.3214122   0.5785419  -0.3214122), wk =   0.0015026
        k(   31) = (  -0.3856946   0.6428243  -0.3856946), wk =   0.0015026
        k(   32) = (  -0.4499770   0.7071068  -0.4499770), wk =   0.0015026
        k(   33) = (  -0.5142595   0.7713892  -0.5142595), wk =   0.0015026
        k(   34) = (   0.1928473   0.1928473   0.1928473), wk =   0.0015026
        k(   35) = (   0.1285649   0.2571297   0.1285649), wk =   0.0015026
        k(   36) = (   0.0642824   0.3214122   0.0642824), wk =   0.0015026
        k(   37) = (   0.0000000   0.3856946   0.0000000), wk =   0.0015026
        k(   38) = (  -0.0642824   0.4499770  -0.0642824), wk =   0.0015026
        k(   39) = (  -0.1285649   0.5142595  -0.1285649), wk =   0.0015026
        k(   40) = (  -0.1928473   0.5785419  -0.1928473), wk =   0.0015026
        k(   41) = (  -0.2571297   0.6428243  -0.2571297), wk =   0.0015026
        k(   42) = (  -0.3214122   0.7071068  -0.3214122), wk =   0.0015026
        k(   43) = (  -0.3856946   0.7713892  -0.3856946), wk =   0.0015026
        k(   44) = (  -0.4499770   0.8356717  -0.4499770), wk =   0.0015026
        k(   45) = (   0.2571297   0.2571297   0.2571297), wk =   0.0015026
        k(   46) = (   0.1928473   0.3214122   0.1928473), wk =   0.0015026
        k(   47) = (   0.1285649   0.3856946   0.1285649), wk =   0.0015026
        k(   48) = (   0.0642824   0.4499770   0.0642824), wk =   0.0015026
        k(   49) = (   0.0000000   0.5142595   0.0000000), wk =   0.0015026
        k(   50) = (  -0.0642824   0.5785419  -0.0642824), wk =   0.0015026
        k(   51) = (  -0.1285649   0.6428243  -0.1285649), wk =   0.0015026
        k(   52) = (  -0.1928473   0.7071068  -0.1928473), wk =   0.0015026
        k(   53) = (  -0.2571297   0.7713892  -0.2571297), wk =   0.0015026
        k(   54) = (  -0.3214122   0.8356717  -0.3214122), wk =   0.0015026
        k(   55) = (  -0.3856946   0.8999541  -0.3856946), wk =   0.0015026
        k(   56) = (   0.3214122   0.3214122   0.3214122), wk =   0.0015026
        k(   57) = (   0.2571297   0.3856946   0.2571297), wk =   0.0015026
        k(   58) = (   0.1928473   0.4499770   0.1928473), wk =   0.0015026
        k(   59) = (   0.1285649   0.5142595   0.1285649), wk =   0.0015026
        k(   60) = (   0.0642824   0.5785419   0.0642824), wk =   0.0015026
        k(   61) = (   0.0000000   0.6428243   0.0000000), wk =   0.0015026
        k(   62) = (  -0.0642824   0.7071068  -0.0642824), wk =   0.0015026
        k(   63) = (  -0.1285649   0.7713892  -0.1285649), wk =   0.0015026
        k(   64) = (  -0.1928473   0.8356717  -0.1928473), wk =   0.0015026
        k(   65) = (  -0.2571297   0.8999541  -0.2571297), wk =   0.0015026
        k(   66) = (  -0.3214122   0.9642365  -0.3214122), wk =   0.0015026
        k(   67) = (   0.3856946   0.3856946   0.3856946), wk =   0.0015026
        k(   68) = (   0.3214122   0.4499770   0.3214122), wk =   0.0015026
        k(   69) = (   0.2571297   0.5142595   0.2571297), wk =   0.0015026
        k(   70) = (   0.1928473   0.5785419   0.1928473), wk =   0.0015026
        k(   71) = (   0.1285649   0.6428243   0.1285649), wk =   0.0015026
        k(   72) = (   0.0642824   0.7071068   0.0642824), wk =   0.0015026
        k(   73) = (   0.0000000   0.7713892   0.0000000), wk =   0.0015026
        k(   74) = (  -0.0642824   0.8356717  -0.0642824), wk =   0.0015026
        k(   75) = (  -0.1285649   0.8999541  -0.1285649), wk =   0.0015026
        k(   76) = (  -0.1928473   0.9642365  -0.1928473), wk =   0.0015026
        k(   77) = (  -0.2571297   1.0285190  -0.2571297), wk =   0.0015026
        k(   78) = (   0.4499770   0.4499770   0.4499770), wk =   0.0015026
        k(   79) = (   0.3856946   0.5142595   0.3856946), wk =   0.0015026
        k(   80) = (   0.3214122   0.5785419   0.3214122), wk =   0.0015026
        k(   81) = (   0.2571297   0.6428243   0.2571297), wk =   0.0015026
        k(   82) = (   0.1928473   0.7071068   0.1928473), wk =   0.0015026
        k(   83) = (   0.1285649   0.7713892   0.1285649), wk =   0.0015026
        k(   84) = (   0.0642824   0.8356717   0.0642824), wk =   0.0015026
        k(   85) = (   0.0000000   0.8999541   0.0000000), wk =   0.0015026
        k(   86) = (  -0.0642824   0.9642365  -0.0642824), wk =   0.0015026
        k(   87) = (  -0.1285649   1.0285190  -0.1285649), wk =   0.0015026
        k(   88) = (  -0.1928473   1.0928014  -0.1928473), wk =   0.0015026
        k(   89) = (   0.5142595   0.5142595   0.5142595), wk =   0.0015026
        k(   90) = (   0.4499770   0.5785419   0.4499770), wk =   0.0015026
        k(   91) = (   0.3856946   0.6428243   0.3856946), wk =   0.0015026
        k(   92) = (   0.3214122   0.7071068   0.3214122), wk =   0.0015026
        k(   93) = (   0.2571297   0.7713892   0.2571297), wk =   0.0015026
        k(   94) = (   0.1928473   0.8356717   0.1928473), wk =   0.0015026
        k(   95) = (   0.1285649   0.8999541   0.1285649), wk =   0.0015026
        k(   96) = (   0.0642824   0.9642365   0.0642824), wk =   0.0015026
        k(   97) = (   0.0000000   1.0285190   0.0000000), wk =   0.0015026
        k(   98) = (  -0.0642824   1.0928014  -0.0642824), wk =   0.0015026
        k(   99) = (  -0.1285649   1.1570838  -0.1285649), wk =   0.0015026
        k(  100) = (   0.5785419   0.5785419   0.5785419), wk =   0.0015026
        k(  101) = (   0.5142595   0.6428243   0.5142595), wk =   0.0015026
        k(  102) = (   0.4499770   0.7071068   0.4499770), wk =   0.0015026
        k(  103) = (   0.3856946   0.7713892   0.3856946), wk =   0.0015026
        k(  104) = (   0.3214122   0.8356717   0.3214122), wk =   0.0015026
        k(  105) = (   0.2571297   0.8999541   0.2571297), wk =   0.0015026
        k(  106) = (   0.1928473   0.9642365   0.1928473), wk =   0.0015026
        k(  107) = (   0.1285649   1.0285190   0.1285649), wk =   0.0015026
        k(  108) = (   0.0642824   1.0928014   0.0642824), wk =   0.0015026
        k(  109) = (   0.0000000   1.1570838   0.0000000), wk =   0.0015026
        k(  110) = (  -0.0642824   1.2213663  -0.0642824), wk =   0.0015026
        k(  111) = (   0.6428243   0.6428243   0.6428243), wk =   0.0015026
        k(  112) = (   0.5785419   0.7071068   0.5785419), wk =   0.0015026
        k(  113) = (   0.5142595   0.7713892   0.5142595), wk =   0.0015026
        k(  114) = (   0.4499770   0.8356717   0.4499770), wk =   0.0015026
        k(  115) = (   0.3856946   0.8999541   0.3856946), wk =   0.0015026
        k(  116) = (   0.3214122   0.9642365   0.3214122), wk =   0.0015026
        k(  117) = (   0.2571297   1.0285190   0.2571297), wk =   0.0015026
        k(  118) = (   0.1928473   1.0928014   0.1928473), wk =   0.0015026
        k(  119) = (   0.1285649   1.1570838   0.1285649), wk =   0.0015026
        k(  120) = (   0.0642824   1.2213663   0.0642824), wk =   0.0015026
        k(  121) = (   0.0000000   1.2856487   0.0000000), wk =   0.0015026
        k(  122) = (  -0.0642824  -0.0642824   0.0642824), wk =   0.0015026
        k(  123) = (  -0.1285649   0.0000000   0.0000000), wk =   0.0015026
        k(  124) = (  -0.1928473   0.0642824  -0.0642824), wk =   0.0015026
        k(  125) = (  -0.2571297   0.1285649  -0.1285649), wk =   0.0015026
        k(  126) = (  -0.3214122   0.1928473  -0.1928473), wk =   0.0015026
        k(  127) = (  -0.3856946   0.2571297  -0.2571297), wk =   0.0015026
        k(  128) = (  -0.4499770   0.3214122  -0.3214122), wk =   0.0015026
        k(  129) = (  -0.5142595   0.3856946  -0.3856946), wk =   0.0015026
        k(  130) = (  -0.5785419   0.4499770  -0.4499770), wk =   0.0015026
        k(  131) = (  -0.6428243   0.5142595  -0.5142595), wk =   0.0015026
        k(  132) = (  -0.7071068   0.5785419  -0.5785419), wk =   0.0015026
        k(  133) = (   0.0000000   0.0000000   0.1285649), wk =   0.0015026
        k(  134) = (  -0.0642824   0.0642824   0.0642824), wk =   0.0015026
        k(  135) = (  -0.1285649   0.1285649   0.0000000), wk =   0.0015026
        k(  136) = (  -0.1928473   0.1928473  -0.0642824), wk =   0.0015026
        k(  137) = (  -0.2571297   0.2571297  -0.1285649), wk =   0.0015026
        k(  138) = (  -0.3214122   0.3214122  -0.1928473), wk =   0.0015026
        k(  139) = (  -0.3856946   0.3856946  -0.2571297), wk =   0.0015026
        k(  140) = (  -0.4499770   0.4499770  -0.3214122), wk =   0.0015026
        k(  141) = (  -0.5142595   0.5142595  -0.3856946), wk =   0.0015026
        k(  142) = (  -0.5785419   0.5785419  -0.4499770), wk =   0.0015026
        k(  143) = (  -0.6428243   0.6428243  -0.5142595), wk =   0.0015026
        k(  144) = (   0.0642824   0.0642824   0.1928473), wk =   0.0015026
        k(  145) = (   0.0000000   0.1285649   0.1285649), wk =   0.0015026
        k(  146) = (  -0.0642824   0.1928473   0.0642824), wk =   0.0015026
        k(  147) = (  -0.1285649   0.2571297  -0.0000000), wk =   0.0015026
        k(  148) = (  -0.1928473   0.3214122  -0.0642824), wk =   0.0015026
        k(  149) = (  -0.2571297   0.3856946  -0.1285649), wk =   0.0015026
        k(  150) = (  -0.3214122   0.4499770  -0.1928473), wk =   0.0015026
        k(  151) = (  -0.3856946   0.5142595  -0.2571297), wk =   0.0015026
        k(  152) = (  -0.4499770   0.5785419  -0.3214122), wk =   0.0015026
        k(  153) = (  -0.5142595   0.6428243  -0.3856946), wk =   0.0015026
        k(  154) = (  -0.5785419   0.7071068  -0.4499770), wk =   0.0015026
        k(  155) = (   0.1285649   0.1285649   0.2571297), wk =   0.0015026
        k(  156) = (   0.0642824   0.1928473   0.1928473), wk =   0.0015026
        k(  157) = (   0.0000000   0.2571297   0.1285649), wk =   0.0015026
        k(  158) = (  -0.0642824   0.3214122   0.0642824), wk =   0.0015026
        k(  159) = (  -0.1285649   0.3856946   0.0000000), wk =   0.0015026
        k(  160) = (  -0.1928473   0.4499770  -0.0642824), wk =   0.0015026
        k(  161) = (  -0.2571297   0.5142595  -0.1285649), wk =   0.0015026
        k(  162) = (  -0.3214122   0.5785419  -0.1928473), wk =   0.0015026
        k(  163) = (  -0.3856946   0.6428243  -0.2571297), wk =   0.0015026
        k(  164) = (  -0.4499770   0.7071068  -0.3214122), wk =   0.0015026
        k(  165) = (  -0.5142595   0.7713892  -0.3856946), wk =   0.0015026
        k(  166) = (   0.1928473   0.1928473   0.3214122), wk =   0.0015026
        k(  167) = (   0.1285649   0.2571297   0.2571297), wk =   0.0015026
        k(  168) = (   0.0642824   0.3214122   0.1928473), wk =   0.0015026
        k(  169) = (  -0.0000000   0.3856946   0.1285649), wk =   0.0015026
        k(  170) = (  -0.0642824   0.4499770   0.0642824), wk =   0.0015026
        k(  171) = (  -0.1285649   0.5142595   0.0000000), wk =   0.0015026
        k(  172) = (  -0.1928473   0.5785419  -0.0642824), wk =   0.0015026
        k(  173) = (  -0.2571297   0.6428243  -0.1285649), wk =   0.0015026
        k(  174) = (  -0.3214122   0.7071068  -0.1928473), wk =   0.0015026
        k(  175) = (  -0.3856946   0.7713892  -0.2571297), wk =   0.0015026
        k(  176) = (  -0.4499770   0.8356717  -0.3214122), wk =   0.0015026
        k(  177) = (   0.2571297   0.2571297   0.3856946), wk =   0.0015026
        k(  178) = (   0.1928473   0.3214122   0.3214122), wk =   0.0015026
        k(  179) = (   0.1285649   0.3856946   0.2571297), wk =   0.0015026
        k(  180) = (   0.0642824   0.4499770   0.1928473), wk =   0.0015026
        k(  181) = (   0.0000000   0.5142595   0.1285649), wk =   0.0015026
        k(  182) = (  -0.0642824   0.5785419   0.0642824), wk =   0.0015026
        k(  183) = (  -0.1285649   0.6428243  -0.0000000), wk =   0.0015026
        k(  184) = (  -0.1928473   0.7071068  -0.0642824), wk =   0.0015026
        k(  185) = (  -0.2571297   0.7713892  -0.1285649), wk =   0.0015026
        k(  186) = (  -0.3214122   0.8356717  -0.1928473), wk =   0.0015026
        k(  187) = (  -0.3856946   0.8999541  -0.2571297), wk =   0.0015026
        k(  188) = (   0.3214122   0.3214122   0.4499770), wk =   0.0015026
        k(  189) = (   0.2571297   0.3856946   0.3856946), wk =   0.0015026
        k(  190) = (   0.1928473   0.4499770   0.3214122), wk =   0.0015026
        k(  191) = (   0.1285649   0.5142595   0.2571297), wk =   0.0015026
        k(  192) = (   0.0642824   0.5785419   0.1928473), wk =   0.0015026
        k(  193) = (   0.0000000   0.6428243   0.1285649), wk =   0.0015026
        k(  194) = (  -0.0642824   0.7071068   0.0642824), wk =   0.0015026
        k(  195) = (  -0.1285649   0.7713892   0.0000000), wk =   0.0015026
        k(  196) = (  -0.1928473   0.8356717  -0.0642824), wk =   0.0015026
        k(  197) = (  -0.2571297   0.8999541  -0.1285649), wk =   0.0015026
        k(  198) = (  -0.3214122   0.9642365  -0.1928473), wk =   0.0015026
        k(  199) = (   0.3856946   0.3856946   0.5142595), wk =   0.0015026
        k(  200) = (   0.3214122   0.4499770   0.4499770), wk =   0.0015026
        k(  201) = (   0.2571297   0.5142595   0.3856946), wk =   0.0015026
        k(  202) = (   0.1928473   0.5785419   0.3214122), wk =   0.0015026
        k(  203) = (   0.1285649   0.6428243   0.2571297), wk =   0.0015026
        k(  204) = (   0.0642824   0.7071068   0.1928473), wk =   0.0015026
        k(  205) = (   0.0000000   0.7713892   0.1285649), wk =   0.0015026
        k(  206) = (  -0.0642824   0.8356717   0.0642824), wk =   0.0015026
        k(  207) = (  -0.1285649   0.8999541   0.0000000), wk =   0.0015026
        k(  208) = (  -0.1928473   0.9642365  -0.0642824), wk =   0.0015026
        k(  209) = (  -0.2571297   1.0285190  -0.1285649), wk =   0.0015026
        k(  210) = (   0.4499770   0.4499770   0.5785419), wk =   0.0015026
        k(  211) = (   0.3856946   0.5142595   0.5142595), wk =   0.0015026
        k(  212) = (   0.3214122   0.5785419   0.4499770), wk =   0.0015026
        k(  213) = (   0.2571297   0.6428243   0.3856946), wk =   0.0015026
        k(  214) = (   0.1928473   0.7071068   0.3214122), wk =   0.0015026
        k(  215) = (   0.1285649   0.7713892   0.2571297), wk =   0.0015026
        k(  216) = (   0.0642824   0.8356717   0.1928473), wk =   0.0015026
        k(  217) = (   0.0000000   0.8999541   0.1285649), wk =   0.0015026
        k(  218) = (  -0.0642824   0.9642365   0.0642824), wk =   0.0015026
        k(  219) = (  -0.1285649   1.0285190   0.0000000), wk =   0.0015026
        k(  220) = (  -0.1928473   1.0928014  -0.0642824), wk =   0.0015026
        k(  221) = (   0.5142595   0.5142595   0.6428243), wk =   0.0015026
        k(  222) = (   0.4499770   0.5785419   0.5785419), wk =   0.0015026
        k(  223) = (   0.3856946   0.6428243   0.5142595), wk =   0.0015026
        k(  224) = (   0.3214122   0.7071068   0.4499770), wk =   0.0015026
        k(  225) = (   0.2571297   0.7713892   0.3856946), wk =   0.0015026
        k(  226) = (   0.1928473   0.8356717   0.3214122), wk =   0.0015026
        k(  227) = (   0.1285649   0.8999541   0.2571297), wk =   0.0015026
        k(  228) = (   0.0642824   0.9642365   0.1928473), wk =   0.0015026
        k(  229) = (   0.0000000   1.0285190   0.1285649), wk =   0.0015026
        k(  230) = (  -0.0642824   1.0928014   0.0642824), wk =   0.0015026
        k(  231) = (  -0.1285649   1.1570838  -0.0000000), wk =   0.0015026
        k(  232) = (   0.5785419   0.5785419   0.7071068), wk =   0.0015026
        k(  233) = (   0.5142595   0.6428243   0.6428243), wk =   0.0015026
        k(  234) = (   0.4499770   0.7071068   0.5785419), wk =   0.0015026
        k(  235) = (   0.3856946   0.7713892   0.5142595), wk =   0.0015026
        k(  236) = (   0.3214122   0.8356717   0.4499770), wk =   0.0015026
        k(  237) = (   0.2571297   0.8999541   0.3856946), wk =   0.0015026
        k(  238) = (   0.1928473   0.9642365   0.3214122), wk =   0.0015026
        k(  239) = (   0.1285649   1.0285190   0.2571297), wk =   0.0015026
        k(  240) = (   0.0642824   1.0928014   0.1928473), wk =   0.0015026
        k(  241) = (   0.0000000   1.1570838   0.1285649), wk =   0.0015026
        k(  242) = (  -0.0642824   1.2213663   0.0642824), wk =   0.0015026
        k(  243) = (  -0.1285649  -0.1285649   0.1285649), wk =   0.0015026
        k(  244) = (  -0.1928473  -0.0642824   0.0642824), wk =   0.0015026
        k(  245) = (  -0.2571297   0.0000000   0.0000000), wk =   0.0015026
        k(  246) = (  -0.3214122   0.0642824  -0.0642824), wk =   0.0015026
        k(  247) = (  -0.3856946   0.1285649  -0.1285649), wk =   0.0015026
        k(  248) = (  -0.4499770   0.1928473  -0.1928473), wk =   0.0015026
        k(  249) = (  -0.5142595   0.2571297  -0.2571297), wk =   0.0015026
        k(  250) = (  -0.5785419   0.3214122  -0.3214122), wk =   0.0015026
        k(  251) = (  -0.6428243   0.3856946  -0.3856946), wk =   0.0015026
        k(  252) = (  -0.7071068   0.4499770  -0.4499770), wk =   0.0015026
        k(  253) = (  -0.7713892   0.5142595  -0.5142595), wk =   0.0015026
        k(  254) = (  -0.0642824  -0.0642824   0.1928473), wk =   0.0015026
        k(  255) = (  -0.1285649   0.0000000   0.1285649), wk =   0.0015026
        k(  256) = (  -0.1928473   0.0642824   0.0642824), wk =   0.0015026
        k(  257) = (  -0.2571297   0.1285649  -0.0000000), wk =   0.0015026
        k(  258) = (  -0.3214122   0.1928473  -0.0642824), wk =   0.0015026
        k(  259) = (  -0.3856946   0.2571297  -0.1285649), wk =   0.0015026
        k(  260) = (  -0.4499770   0.3214122  -0.1928473), wk =   0.0015026
        k(  261) = (  -0.5142595   0.3856946  -0.2571297), wk =   0.0015026
        k(  262) = (  -0.5785419   0.4499770  -0.3214122), wk =   0.0015026
        k(  263) = (  -0.6428243   0.5142595  -0.3856946), wk =   0.0015026
        k(  264) = (  -0.7071068   0.5785419  -0.4499770), wk =   0.0015026
        k(  265) = (   0.0000000   0.0000000   0.2571297), wk =   0.0015026
        k(  266) = (  -0.0642824   0.0642824   0.1928473), wk =   0.0015026
        k(  267) = (  -0.1285649   0.1285649   0.1285649), wk =   0.0015026
        k(  268) = (  -0.1928473   0.1928473   0.0642824), wk =   0.0015026
        k(  269) = (  -0.2571297   0.2571297   0.0000000), wk =   0.0015026
        k(  270) = (  -0.3214122   0.3214122  -0.0642824), wk =   0.0015026
        k(  271) = (  -0.3856946   0.3856946  -0.1285649), wk =   0.0015026
        k(  272) = (  -0.4499770   0.4499770  -0.1928473), wk =   0.0015026
        k(  273) = (  -0.5142595   0.5142595  -0.2571297), wk =   0.0015026
        k(  274) = (  -0.5785419   0.5785419  -0.3214122), wk =   0.0015026
        k(  275) = (  -0.6428243   0.6428243  -0.3856946), wk =   0.0015026
        k(  276) = (   0.0642824   0.0642824   0.3214122), wk =   0.0015026
        k(  277) = (   0.0000000   0.1285649   0.2571297), wk =   0.0015026
        k(  278) = (  -0.0642824   0.1928473   0.1928473), wk =   0.0015026
        k(  279) = (  -0.1285649   0.2571297   0.1285649), wk =   0.0015026
        k(  280) = (  -0.1928473   0.3214122   0.0642824), wk =   0.0015026
        k(  281) = (  -0.2571297   0.3856946   0.0000000), wk =   0.0015026
        k(  282) = (  -0.3214122   0.4499770  -0.0642824), wk =   0.0015026
        k(  283) = (  -0.3856946   0.5142595  -0.1285649), wk =   0.0015026
        k(  284) = (  -0.4499770   0.5785419  -0.1928473), wk =   0.0015026
        k(  285) = (  -0.5142595   0.6428243  -0.2571297), wk =   0.0015026
        k(  286) = (  -0.5785419   0.7071068  -0.3214122), wk =   0.0015026
        k(  287) = (   0.1285649   0.1285649   0.3856946), wk =   0.0015026
        k(  288) = (   0.0642824   0.1928473   0.3214122), wk =   0.0015026
        k(  289) = (   0.0000000   0.2571297   0.2571297), wk =   0.0015026
        k(  290) = (  -0.0642824   0.3214122   0.1928473), wk =   0.0015026
        k(  291) = (  -0.1285649   0.3856946   0.1285649), wk =   0.0015026
        k(  292) = (  -0.1928473   0.4499770   0.0642824), wk =   0.0015026
        k(  293) = (  -0.2571297   0.5142595  -0.0000000), wk =   0.0015026
        k(  294) = (  -0.3214122   0.5785419  -0.0642824), wk =   0.0015026
        k(  295) = (  -0.3856946   0.6428243  -0.1285649), wk =   0.0015026
        k(  296) = (  -0.4499770   0.7071068  -0.1928473), wk =   0.0015026
        k(  297) = (  -0.5142595   0.7713892  -0.2571297), wk =   0.0015026
        k(  298) = (   0.1928473   0.1928473   0.4499770), wk =   0.0015026
        k(  299) = (   0.1285649   0.2571297   0.3856946), wk =   0.0015026
        k(  300) = (   0.0642824   0.3214122   0.3214122), wk =   0.0015026
        k(  301) = (  -0.0000000   0.3856946   0.2571297), wk =   0.0015026
        k(  302) = (  -0.0642824   0.4499770   0.1928473), wk =   0.0015026
        k(  303) = (  -0.1285649   0.5142595   0.1285649), wk =   0.0015026
        k(  304) = (  -0.1928473   0.5785419   0.0642824), wk =   0.0015026
        k(  305) = (  -0.2571297   0.6428243  -0.0000000), wk =   0.0015026
        k(  306) = (  -0.3214122   0.7071068  -0.0642824), wk =   0.0015026
        k(  307) = (  -0.3856946   0.7713892  -0.1285649), wk =   0.0015026
        k(  308) = (  -0.4499770   0.8356717  -0.1928473), wk =   0.0015026
        k(  309) = (   0.2571297   0.2571297   0.5142595), wk =   0.0015026
        k(  310) = (   0.1928473   0.3214122   0.4499770), wk =   0.0015026
        k(  311) = (   0.1285649   0.3856946   0.3856946), wk =   0.0015026
        k(  312) = (   0.0642824   0.4499770   0.3214122), wk =   0.0015026
        k(  313) = (   0.0000000   0.5142595   0.2571297), wk =   0.0015026
        k(  314) = (  -0.0642824   0.5785419   0.1928473), wk =   0.0015026
        k(  315) = (  -0.1285649   0.6428243   0.1285649), wk =   0.0015026
        k(  316) = (  -0.1928473   0.7071068   0.0642824), wk =   0.0015026
        k(  317) = (  -0.2571297   0.7713892   0.0000000), wk =   0.0015026
        k(  318) = (  -0.3214122   0.8356717  -0.0642824), wk =   0.0015026
        k(  319) = (  -0.3856946   0.8999541  -0.1285649), wk =   0.0015026
        k(  320) = (   0.3214122   0.3214122   0.5785419), wk =   0.0015026
        k(  321) = (   0.2571297   0.3856946   0.5142595), wk =   0.0015026
        k(  322) = (   0.1928473   0.4499770   0.4499770), wk =   0.0015026
        k(  323) = (   0.1285649   0.5142595   0.3856946), wk =   0.0015026
        k(  324) = (   0.0642824   0.5785419   0.3214122), wk =   0.0015026
        k(  325) = (   0.0000000   0.6428243   0.2571297), wk =   0.0015026
        k(  326) = (  -0.0642824   0.7071068   0.1928473), wk =   0.0015026
        k(  327) = (  -0.1285649   0.7713892   0.1285649), wk =   0.0015026
        k(  328) = (  -0.1928473   0.8356717   0.0642824), wk =   0.0015026
        k(  329) = (  -0.2571297   0.8999541   0.0000000), wk =   0.0015026
        k(  330) = (  -0.3214122   0.9642365  -0.0642824), wk =   0.0015026
        k(  331) = (   0.3856946   0.3856946   0.6428243), wk =   0.0015026
        k(  332) = (   0.3214122   0.4499770   0.5785419), wk =   0.0015026
        k(  333) = (   0.2571297   0.5142595   0.5142595), wk =   0.0015026
        k(  334) = (   0.1928473   0.5785419   0.4499770), wk =   0.0015026
        k(  335) = (   0.1285649   0.6428243   0.3856946), wk =   0.0015026
        k(  336) = (   0.0642824   0.7071068   0.3214122), wk =   0.0015026
        k(  337) = (   0.0000000   0.7713892   0.2571297), wk =   0.0015026
        k(  338) = (  -0.0642824   0.8356717   0.1928473), wk =   0.0015026
        k(  339) = (  -0.1285649   0.8999541   0.1285649), wk =   0.0015026
        k(  340) = (  -0.1928473   0.9642365   0.0642824), wk =   0.0015026
        k(  341) = (  -0.2571297   1.0285190   0.0000000), wk =   0.0015026
        k(  342) = (   0.4499770   0.4499770   0.7071068), wk =   0.0015026
        k(  343) = (   0.3856946   0.5142595   0.6428243), wk =   0.0015026
        k(  344) = (   0.3214122   0.5785419   0.5785419), wk =   0.0015026
        k(  345) = (   0.2571297   0.6428243   0.5142595), wk =   0.0015026
        k(  346) = (   0.1928473   0.7071068   0.4499770), wk =   0.0015026
        k(  347) = (   0.1285649   0.7713892   0.3856946), wk =   0.0015026
        k(  348) = (   0.0642824   0.8356717   0.3214122), wk =   0.0015026
        k(  349) = (   0.0000000   0.8999541   0.2571297), wk =   0.0015026
        k(  350) = (  -0.0642824   0.9642365   0.1928473), wk =   0.0015026
        k(  351) = (  -0.1285649   1.0285190   0.1285649), wk =   0.0015026
        k(  352) = (  -0.1928473   1.0928014   0.0642824), wk =   0.0015026
        k(  353) = (   0.5142595   0.5142595   0.7713892), wk =   0.0015026
        k(  354) = (   0.4499770   0.5785419   0.7071068), wk =   0.0015026
        k(  355) = (   0.3856946   0.6428243   0.6428243), wk =   0.0015026
        k(  356) = (   0.3214122   0.7071068   0.5785419), wk =   0.0015026
        k(  357) = (   0.2571297   0.7713892   0.5142595), wk =   0.0015026
        k(  358) = (   0.1928473   0.8356717   0.4499770), wk =   0.0015026
        k(  359) = (   0.1285649   0.8999541   0.3856946), wk =   0.0015026
        k(  360) = (   0.0642824   0.9642365   0.3214122), wk =   0.0015026
        k(  361) = (   0.0000000   1.0285190   0.2571297), wk =   0.0015026
        k(  362) = (  -0.0642824   1.0928014   0.1928473), wk =   0.0015026
        k(  363) = (  -0.1285649   1.1570838   0.1285649), wk =   0.0015026
        k(  364) = (  -0.1928473  -0.1928473   0.1928473), wk =   0.0015026
        k(  365) = (  -0.2571297  -0.1285649   0.1285649), wk =   0.0015026
        k(  366) = (  -0.3214122  -0.0642824   0.0642824), wk =   0.0015026
        k(  367) = (  -0.3856946   0.0000000   0.0000000), wk =   0.0015026
        k(  368) = (  -0.4499770   0.0642824  -0.0642824), wk =   0.0015026
        k(  369) = (  -0.5142595   0.1285649  -0.1285649), wk =   0.0015026
        k(  370) = (  -0.5785419   0.1928473  -0.1928473), wk =   0.0015026
        k(  371) = (  -0.6428243   0.2571297  -0.2571297), wk =   0.0015026
        k(  372) = (  -0.7071068   0.3214122  -0.3214122), wk =   0.0015026
        k(  373) = (  -0.7713892   0.3856946  -0.3856946), wk =   0.0015026
        k(  374) = (  -0.8356717   0.4499770  -0.4499770), wk =   0.0015026
        k(  375) = (  -0.1285649  -0.1285649   0.2571297), wk =   0.0015026
        k(  376) = (  -0.1928473  -0.0642824   0.1928473), wk =   0.0015026
        k(  377) = (  -0.2571297  -0.0000000   0.1285649), wk =   0.0015026
        k(  378) = (  -0.3214122   0.0642824   0.0642824), wk =   0.0015026
        k(  379) = (  -0.3856946   0.1285649   0.0000000), wk =   0.0015026
        k(  380) = (  -0.4499770   0.1928473  -0.0642824), wk =   0.0015026
        k(  381) = (  -0.5142595   0.2571297  -0.1285649), wk =   0.0015026
        k(  382) = (  -0.5785419   0.3214122  -0.1928473), wk =   0.0015026
        k(  383) = (  -0.6428243   0.3856946  -0.2571297), wk =   0.0015026
        k(  384) = (  -0.7071068   0.4499770  -0.3214122), wk =   0.0015026
        k(  385) = (  -0.7713892   0.5142595  -0.3856946), wk =   0.0015026
        k(  386) = (  -0.0642824  -0.0642824   0.3214122), wk =   0.0015026
        k(  387) = (  -0.1285649  -0.0000000   0.2571297), wk =   0.0015026
        k(  388) = (  -0.1928473   0.0642824   0.1928473), wk =   0.0015026
        k(  389) = (  -0.2571297   0.1285649   0.1285649), wk =   0.0015026
        k(  390) = (  -0.3214122   0.1928473   0.0642824), wk =   0.0015026
        k(  391) = (  -0.3856946   0.2571297   0.0000000), wk =   0.0015026
        k(  392) = (  -0.4499770   0.3214122  -0.0642824), wk =   0.0015026
        k(  393) = (  -0.5142595   0.3856946  -0.1285649), wk =   0.0015026
        k(  394) = (  -0.5785419   0.4499770  -0.1928473), wk =   0.0015026
        k(  395) = (  -0.6428243   0.5142595  -0.2571297), wk =   0.0015026
        k(  396) = (  -0.7071068   0.5785419  -0.3214122), wk =   0.0015026
        k(  397) = (   0.0000000   0.0000000   0.3856946), wk =   0.0015026
        k(  398) = (  -0.0642824   0.0642824   0.3214122), wk =   0.0015026
        k(  399) = (  -0.1285649   0.1285649   0.2571297), wk =   0.0015026
        k(  400) = (  -0.1928473   0.1928473   0.1928473), wk =   0.0015026
        k(  401) = (  -0.2571297   0.2571297   0.1285649), wk =   0.0015026
        k(  402) = (  -0.3214122   0.3214122   0.0642824), wk =   0.0015026
        k(  403) = (  -0.3856946   0.3856946  -0.0000000), wk =   0.0015026
        k(  404) = (  -0.4499770   0.4499770  -0.0642824), wk =   0.0015026
        k(  405) = (  -0.5142595   0.5142595  -0.1285649), wk =   0.0015026
        k(  406) = (  -0.5785419   0.5785419  -0.1928473), wk =   0.0015026
        k(  407) = (  -0.6428243   0.6428243  -0.2571297), wk =   0.0015026
        k(  408) = (   0.0642824   0.0642824   0.4499770), wk =   0.0015026
        k(  409) = (  -0.0000000   0.1285649   0.3856946), wk =   0.0015026
        k(  410) = (  -0.0642824   0.1928473   0.3214122), wk =   0.0015026
        k(  411) = (  -0.1285649   0.2571297   0.2571297), wk =   0.0015026
        k(  412) = (  -0.1928473   0.3214122   0.1928473), wk =   0.0015026
        k(  413) = (  -0.2571297   0.3856946   0.1285649), wk =   0.0015026
        k(  414) = (  -0.3214122   0.4499770   0.0642824), wk =   0.0015026
        k(  415) = (  -0.3856946   0.5142595  -0.0000000), wk =   0.0015026
        k(  416) = (  -0.4499770   0.5785419  -0.0642824), wk =   0.0015026
        k(  417) = (  -0.5142595   0.6428243  -0.1285649), wk =   0.0015026
        k(  418) = (  -0.5785419   0.7071068  -0.1928473), wk =   0.0015026
        k(  419) = (   0.1285649   0.1285649   0.5142595), wk =   0.0015026
        k(  420) = (   0.0642824   0.1928473   0.4499770), wk =   0.0015026
        k(  421) = (  -0.0000000   0.2571297   0.3856946), wk =   0.0015026
        k(  422) = (  -0.0642824   0.3214122   0.3214122), wk =   0.0015026
        k(  423) = (  -0.1285649   0.3856946   0.2571297), wk =   0.0015026
        k(  424) = (  -0.1928473   0.4499770   0.1928473), wk =   0.0015026
        k(  425) = (  -0.2571297   0.5142595   0.1285649), wk =   0.0015026
        k(  426) = (  -0.3214122   0.5785419   0.0642824), wk =   0.0015026
        k(  427) = (  -0.3856946   0.6428243  -0.0000000), wk =   0.0015026
        k(  428) = (  -0.4499770   0.7071068  -0.0642824), wk =   0.0015026
        k(  429) = (  -0.5142595   0.7713892  -0.1285649), wk =   0.0015026
        k(  430) = (   0.1928473   0.1928473   0.5785419), wk =   0.0015026
        k(  431) = (   0.1285649   0.2571297   0.5142595), wk =   0.0015026
        k(  432) = (   0.0642824   0.3214122   0.4499770), wk =   0.0015026
        k(  433) = (   0.0000000   0.3856946   0.3856946), wk =   0.0015026
        k(  434) = (  -0.0642824   0.4499770   0.3214122), wk =   0.0015026
        k(  435) = (  -0.1285649   0.5142595   0.2571297), wk =   0.0015026
        k(  436) = (  -0.1928473   0.5785419   0.1928473), wk =   0.0015026
        k(  437) = (  -0.2571297   0.6428243   0.1285649), wk =   0.0015026
        k(  438) = (  -0.3214122   0.7071068   0.0642824), wk =   0.0015026
        k(  439) = (  -0.3856946   0.7713892   0.0000000), wk =   0.0015026
        k(  440) = (  -0.4499770   0.8356717  -0.0642824), wk =   0.0015026
        k(  441) = (   0.2571297   0.2571297   0.6428243), wk =   0.0015026
        k(  442) = (   0.1928473   0.3214122   0.5785419), wk =   0.0015026
        k(  443) = (   0.1285649   0.3856946   0.5142595), wk =   0.0015026
        k(  444) = (   0.0642824   0.4499770   0.4499770), wk =   0.0015026
        k(  445) = (   0.0000000   0.5142595   0.3856946), wk =   0.0015026
        k(  446) = (  -0.0642824   0.5785419   0.3214122), wk =   0.0015026
        k(  447) = (  -0.1285649   0.6428243   0.2571297), wk =   0.0015026
        k(  448) = (  -0.1928473   0.7071068   0.1928473), wk =   0.0015026
        k(  449) = (  -0.2571297   0.7713892   0.1285649), wk =   0.0015026
        k(  450) = (  -0.3214122   0.8356717   0.0642824), wk =   0.0015026
        k(  451) = (  -0.3856946   0.8999541   0.0000000), wk =   0.0015026
        k(  452) = (   0.3214122   0.3214122   0.7071068), wk =   0.0015026
        k(  453) = (   0.2571297   0.3856946   0.6428243), wk =   0.0015026
        k(  454) = (   0.1928473   0.4499770   0.5785419), wk =   0.0015026
        k(  455) = (   0.1285649   0.5142595   0.5142595), wk =   0.0015026
        k(  456) = (   0.0642824   0.5785419   0.4499770), wk =   0.0015026
        k(  457) = (   0.0000000   0.6428243   0.3856946), wk =   0.0015026
        k(  458) = (  -0.0642824   0.7071068   0.3214122), wk =   0.0015026
        k(  459) = (  -0.1285649   0.7713892   0.2571297), wk =   0.0015026
        k(  460) = (  -0.1928473   0.8356717   0.1928473), wk =   0.0015026
        k(  461) = (  -0.2571297   0.8999541   0.1285649), wk =   0.0015026
        k(  462) = (  -0.3214122   0.9642365   0.0642824), wk =   0.0015026
        k(  463) = (   0.3856946   0.3856946   0.7713892), wk =   0.0015026
        k(  464) = (   0.3214122   0.4499770   0.7071068), wk =   0.0015026
        k(  465) = (   0.2571297   0.5142595   0.6428243), wk =   0.0015026
        k(  466) = (   0.1928473   0.5785419   0.5785419), wk =   0.0015026
        k(  467) = (   0.1285649   0.6428243   0.5142595), wk =   0.0015026
        k(  468) = (   0.0642824   0.7071068   0.4499770), wk =   0.0015026
        k(  469) = (  -0.0000000   0.7713892   0.3856946), wk =   0.0015026
        k(  470) = (  -0.0642824   0.8356717   0.3214122), wk =   0.0015026
        k(  471) = (  -0.1285649   0.8999541   0.2571297), wk =   0.0015026
        k(  472) = (  -0.1928473   0.9642365   0.1928473), wk =   0.0015026
        k(  473) = (  -0.2571297   1.0285190   0.1285649), wk =   0.0015026
        k(  474) = (   0.4499770   0.4499770   0.8356717), wk =   0.0015026
        k(  475) = (   0.3856946   0.5142595   0.7713892), wk =   0.0015026
        k(  476) = (   0.3214122   0.5785419   0.7071068), wk =   0.0015026
        k(  477) = (   0.2571297   0.6428243   0.6428243), wk =   0.0015026
        k(  478) = (   0.1928473   0.7071068   0.5785419), wk =   0.0015026
        k(  479) = (   0.1285649   0.7713892   0.5142595), wk =   0.0015026
        k(  480) = (   0.0642824   0.8356717   0.4499770), wk =   0.0015026
        k(  481) = (   0.0000000   0.8999541   0.3856946), wk =   0.0015026
        k(  482) = (  -0.0642824   0.9642365   0.3214122), wk =   0.0015026
        k(  483) = (  -0.1285649   1.0285190   0.2571297), wk =   0.0015026
        k(  484) = (  -0.1928473   1.0928014   0.1928473), wk =   0.0015026
        k(  485) = (  -0.2571297  -0.2571297   0.2571297), wk =   0.0015026
        k(  486) = (  -0.3214122  -0.1928473   0.1928473), wk =   0.0015026
        k(  487) = (  -0.3856946  -0.1285649   0.1285649), wk =   0.0015026
        k(  488) = (  -0.4499770  -0.0642824   0.0642824), wk =   0.0015026
        k(  489) = (  -0.5142595   0.0000000   0.0000000), wk =   0.0015026
        k(  490) = (  -0.5785419   0.0642824  -0.0642824), wk =   0.0015026
        k(  491) = (  -0.6428243   0.1285649  -0.1285649), wk =   0.0015026
        k(  492) = (  -0.7071068   0.1928473  -0.1928473), wk =   0.0015026
        k(  493) = (  -0.7713892   0.2571297  -0.2571297), wk =   0.0015026
        k(  494) = (  -0.8356717   0.3214122  -0.3214122), wk =   0.0015026
        k(  495) = (  -0.8999541   0.3856946  -0.3856946), wk =   0.0015026
        k(  496) = (  -0.1928473  -0.1928473   0.3214122), wk =   0.0015026
        k(  497) = (  -0.2571297  -0.1285649   0.2571297), wk =   0.0015026
        k(  498) = (  -0.3214122  -0.0642824   0.1928473), wk =   0.0015026
        k(  499) = (  -0.3856946   0.0000000   0.1285649), wk =   0.0015026
        k(  500) = (  -0.4499770   0.0642824   0.0642824), wk =   0.0015026
        k(  501) = (  -0.5142595   0.1285649   0.0000000), wk =   0.0015026
        k(  502) = (  -0.5785419   0.1928473  -0.0642824), wk =   0.0015026
        k(  503) = (  -0.6428243   0.2571297  -0.1285649), wk =   0.0015026
        k(  504) = (  -0.7071068   0.3214122  -0.1928473), wk =   0.0015026
        k(  505) = (  -0.7713892   0.3856946  -0.2571297), wk =   0.0015026
        k(  506) = (  -0.8356717   0.4499770  -0.3214122), wk =   0.0015026
        k(  507) = (  -0.1285649  -0.1285649   0.3856946), wk =   0.0015026
        k(  508) = (  -0.1928473  -0.0642824   0.3214122), wk =   0.0015026
        k(  509) = (  -0.2571297   0.0000000   0.2571297), wk =   0.0015026
        k(  510) = (  -0.3214122   0.0642824   0.1928473), wk =   0.0015026
        k(  511) = (  -0.3856946   0.1285649   0.1285649), wk =   0.0015026
        k(  512) = (  -0.4499770   0.1928473   0.0642824), wk =   0.0015026
        k(  513) = (  -0.5142595   0.2571297  -0.0000000), wk =   0.0015026
        k(  514) = (  -0.5785419   0.3214122  -0.0642824), wk =   0.0015026
        k(  515) = (  -0.6428243   0.3856946  -0.1285649), wk =   0.0015026
        k(  516) = (  -0.7071068   0.4499770  -0.1928473), wk =   0.0015026
        k(  517) = (  -0.7713892   0.5142595  -0.2571297), wk =   0.0015026
        k(  518) = (  -0.0642824  -0.0642824   0.4499770), wk =   0.0015026
        k(  519) = (  -0.1285649   0.0000000   0.3856946), wk =   0.0015026
        k(  520) = (  -0.1928473   0.0642824   0.3214122), wk =   0.0015026
        k(  521) = (  -0.2571297   0.1285649   0.2571297), wk =   0.0015026
        k(  522) = (  -0.3214122   0.1928473   0.1928473), wk =   0.0015026
        k(  523) = (  -0.3856946   0.2571297   0.1285649), wk =   0.0015026
        k(  524) = (  -0.4499770   0.3214122   0.0642824), wk =   0.0015026
        k(  525) = (  -0.5142595   0.3856946  -0.0000000), wk =   0.0015026
        k(  526) = (  -0.5785419   0.4499770  -0.0642824), wk =   0.0015026
        k(  527) = (  -0.6428243   0.5142595  -0.1285649), wk =   0.0015026
        k(  528) = (  -0.7071068   0.5785419  -0.1928473), wk =   0.0015026
        k(  529) = (   0.0000000   0.0000000   0.5142595), wk =   0.0015026
        k(  530) = (  -0.0642824   0.0642824   0.4499770), wk =   0.0015026
        k(  531) = (  -0.1285649   0.1285649   0.3856946), wk =   0.0015026
        k(  532) = (  -0.1928473   0.1928473   0.3214122), wk =   0.0015026
        k(  533) = (  -0.2571297   0.2571297   0.2571297), wk =   0.0015026
        k(  534) = (  -0.3214122   0.3214122   0.1928473), wk =   0.0015026
        k(  535) = (  -0.3856946   0.3856946   0.1285649), wk =   0.0015026
        k(  536) = (  -0.4499770   0.4499770   0.0642824), wk =   0.0015026
        k(  537) = (  -0.5142595   0.5142595  -0.0000000), wk =   0.0015026
        k(  538) = (  -0.5785419   0.5785419  -0.0642824), wk =   0.0015026
        k(  539) = (  -0.6428243   0.6428243  -0.1285649), wk =   0.0015026
        k(  540) = (   0.0642824   0.0642824   0.5785419), wk =   0.0015026
        k(  541) = (   0.0000000   0.1285649   0.5142595), wk =   0.0015026
        k(  542) = (  -0.0642824   0.1928473   0.4499770), wk =   0.0015026
        k(  543) = (  -0.1285649   0.2571297   0.3856946), wk =   0.0015026
        k(  544) = (  -0.1928473   0.3214122   0.3214122), wk =   0.0015026
        k(  545) = (  -0.2571297   0.3856946   0.2571297), wk =   0.0015026
        k(  546) = (  -0.3214122   0.4499770   0.1928473), wk =   0.0015026
        k(  547) = (  -0.3856946   0.5142595   0.1285649), wk =   0.0015026
        k(  548) = (  -0.4499770   0.5785419   0.0642824), wk =   0.0015026
        k(  549) = (  -0.5142595   0.6428243  -0.0000000), wk =   0.0015026
        k(  550) = (  -0.5785419   0.7071068  -0.0642824), wk =   0.0015026
        k(  551) = (   0.1285649   0.1285649   0.6428243), wk =   0.0015026
        k(  552) = (   0.0642824   0.1928473   0.5785419), wk =   0.0015026
        k(  553) = (   0.0000000   0.2571297   0.5142595), wk =   0.0015026
        k(  554) = (  -0.0642824   0.3214122   0.4499770), wk =   0.0015026
        k(  555) = (  -0.1285649   0.3856946   0.3856946), wk =   0.0015026
        k(  556) = (  -0.1928473   0.4499770   0.3214122), wk =   0.0015026
        k(  557) = (  -0.2571297   0.5142595   0.2571297), wk =   0.0015026
        k(  558) = (  -0.3214122   0.5785419   0.1928473), wk =   0.0015026
        k(  559) = (  -0.3856946   0.6428243   0.1285649), wk =   0.0015026
        k(  560) = (  -0.4499770   0.7071068   0.0642824), wk =   0.0015026
        k(  561) = (  -0.5142595   0.7713892  -0.0000000), wk =   0.0015026
        k(  562) = (   0.1928473   0.1928473   0.7071068), wk =   0.0015026
        k(  563) = (   0.1285649   0.2571297   0.6428243), wk =   0.0015026
        k(  564) = (   0.0642824   0.3214122   0.5785419), wk =   0.0015026
        k(  565) = (   0.0000000   0.3856946   0.5142595), wk =   0.0015026
        k(  566) = (  -0.0642824   0.4499770   0.4499770), wk =   0.0015026
        k(  567) = (  -0.1285649   0.5142595   0.3856946), wk =   0.0015026
        k(  568) = (  -0.1928473   0.5785419   0.3214122), wk =   0.0015026
        k(  569) = (  -0.2571297   0.6428243   0.2571297), wk =   0.0015026
        k(  570) = (  -0.3214122   0.7071068   0.1928473), wk =   0.0015026
        k(  571) = (  -0.3856946   0.7713892   0.1285649), wk =   0.0015026
        k(  572) = (  -0.4499770   0.8356717   0.0642824), wk =   0.0015026
        k(  573) = (   0.2571297   0.2571297   0.7713892), wk =   0.0015026
        k(  574) = (   0.1928473   0.3214122   0.7071068), wk =   0.0015026
        k(  575) = (   0.1285649   0.3856946   0.6428243), wk =   0.0015026
        k(  576) = (   0.0642824   0.4499770   0.5785419), wk =   0.0015026
        k(  577) = (   0.0000000   0.5142595   0.5142595), wk =   0.0015026
        k(  578) = (  -0.0642824   0.5785419   0.4499770), wk =   0.0015026
        k(  579) = (  -0.1285649   0.6428243   0.3856946), wk =   0.0015026
        k(  580) = (  -0.1928473   0.7071068   0.3214122), wk =   0.0015026
        k(  581) = (  -0.2571297   0.7713892   0.2571297), wk =   0.0015026
        k(  582) = (  -0.3214122   0.8356717   0.1928473), wk =   0.0015026
        k(  583) = (  -0.3856946   0.8999541   0.1285649), wk =   0.0015026
        k(  584) = (   0.3214122   0.3214122   0.8356717), wk =   0.0015026
        k(  585) = (   0.2571297   0.3856946   0.7713892), wk =   0.0015026
        k(  586) = (   0.1928473   0.4499770   0.7071068), wk =   0.0015026
        k(  587) = (   0.1285649   0.5142595   0.6428243), wk =   0.0015026
        k(  588) = (   0.0642824   0.5785419   0.5785419), wk =   0.0015026
        k(  589) = (   0.0000000   0.6428243   0.5142595), wk =   0.0015026
        k(  590) = (  -0.0642824   0.7071068   0.4499770), wk =   0.0015026
        k(  591) = (  -0.1285649   0.7713892   0.3856946), wk =   0.0015026
        k(  592) = (  -0.1928473   0.8356717   0.3214122), wk =   0.0015026
        k(  593) = (  -0.2571297   0.8999541   0.2571297), wk =   0.0015026
        k(  594) = (  -0.3214122   0.9642365   0.1928473), wk =   0.0015026
        k(  595) = (   0.3856946   0.3856946   0.8999541), wk =   0.0015026
        k(  596) = (   0.3214122   0.4499770   0.8356717), wk =   0.0015026
        k(  597) = (   0.2571297   0.5142595   0.7713892), wk =   0.0015026
        k(  598) = (   0.1928473   0.5785419   0.7071068), wk =   0.0015026
        k(  599) = (   0.1285649   0.6428243   0.6428243), wk =   0.0015026
        k(  600) = (   0.0642824   0.7071068   0.5785419), wk =   0.0015026
        k(  601) = (   0.0000000   0.7713892   0.5142595), wk =   0.0015026
        k(  602) = (  -0.0642824   0.8356717   0.4499770), wk =   0.0015026
        k(  603) = (  -0.1285649   0.8999541   0.3856946), wk =   0.0015026
        k(  604) = (  -0.1928473   0.9642365   0.3214122), wk =   0.0015026
        k(  605) = (  -0.2571297   1.0285190   0.2571297), wk =   0.0015026
        k(  606) = (  -0.3214122  -0.3214122   0.3214122), wk =   0.0015026
        k(  607) = (  -0.3856946  -0.2571297   0.2571297), wk =   0.0015026
        k(  608) = (  -0.4499770  -0.1928473   0.1928473), wk =   0.0015026
        k(  609) = (  -0.5142595  -0.1285649   0.1285649), wk =   0.0015026
        k(  610) = (  -0.5785419  -0.0642824   0.0642824), wk =   0.0015026
        k(  611) = (  -0.6428243   0.0000000   0.0000000), wk =   0.0015026
        k(  612) = (  -0.7071068   0.0642824  -0.0642824), wk =   0.0015026
        k(  613) = (  -0.7713892   0.1285649  -0.1285649), wk =   0.0015026
        k(  614) = (  -0.8356717   0.1928473  -0.1928473), wk =   0.0015026
        k(  615) = (  -0.8999541   0.2571297  -0.2571297), wk =   0.0015026
        k(  616) = (  -0.9642365   0.3214122  -0.3214122), wk =   0.0015026
        k(  617) = (  -0.2571297  -0.2571297   0.3856946), wk =   0.0015026
        k(  618) = (  -0.3214122  -0.1928473   0.3214122), wk =   0.0015026
        k(  619) = (  -0.3856946  -0.1285649   0.2571297), wk =   0.0015026
        k(  620) = (  -0.4499770  -0.0642824   0.1928473), wk =   0.0015026
        k(  621) = (  -0.5142595   0.0000000   0.1285649), wk =   0.0015026
        k(  622) = (  -0.5785419   0.0642824   0.0642824), wk =   0.0015026
        k(  623) = (  -0.6428243   0.1285649  -0.0000000), wk =   0.0015026
        k(  624) = (  -0.7071068   0.1928473  -0.0642824), wk =   0.0015026
        k(  625) = (  -0.7713892   0.2571297  -0.1285649), wk =   0.0015026
        k(  626) = (  -0.8356717   0.3214122  -0.1928473), wk =   0.0015026
        k(  627) = (  -0.8999541   0.3856946  -0.2571297), wk =   0.0015026
        k(  628) = (  -0.1928473  -0.1928473   0.4499770), wk =   0.0015026
        k(  629) = (  -0.2571297  -0.1285649   0.3856946), wk =   0.0015026
        k(  630) = (  -0.3214122  -0.0642824   0.3214122), wk =   0.0015026
        k(  631) = (  -0.3856946   0.0000000   0.2571297), wk =   0.0015026
        k(  632) = (  -0.4499770   0.0642824   0.1928473), wk =   0.0015026
        k(  633) = (  -0.5142595   0.1285649   0.1285649), wk =   0.0015026
        k(  634) = (  -0.5785419   0.1928473   0.0642824), wk =   0.0015026
        k(  635) = (  -0.6428243   0.2571297  -0.0000000), wk =   0.0015026
        k(  636) = (  -0.7071068   0.3214122  -0.0642824), wk =   0.0015026
        k(  637) = (  -0.7713892   0.3856946  -0.1285649), wk =   0.0015026
        k(  638) = (  -0.8356717   0.4499770  -0.1928473), wk =   0.0015026
        k(  639) = (  -0.1285649  -0.1285649   0.5142595), wk =   0.0015026
        k(  640) = (  -0.1928473  -0.0642824   0.4499770), wk =   0.0015026
        k(  641) = (  -0.2571297   0.0000000   0.3856946), wk =   0.0015026
        k(  642) = (  -0.3214122   0.0642824   0.3214122), wk =   0.0015026
        k(  643) = (  -0.3856946   0.1285649   0.2571297), wk =   0.0015026
        k(  644) = (  -0.4499770   0.1928473   0.1928473), wk =   0.0015026
        k(  645) = (  -0.5142595   0.2571297   0.1285649), wk =   0.0015026
        k(  646) = (  -0.5785419   0.3214122   0.0642824), wk =   0.0015026
        k(  647) = (  -0.6428243   0.3856946  -0.0000000), wk =   0.0015026
        k(  648) = (  -0.7071068   0.4499770  -0.0642824), wk =   0.0015026
        k(  649) = (  -0.7713892   0.5142595  -0.1285649), wk =   0.0015026
        k(  650) = (  -0.0642824  -0.0642824   0.5785419), wk =   0.0015026
        k(  651) = (  -0.1285649   0.0000000   0.5142595), wk =   0.0015026
        k(  652) = (  -0.1928473   0.0642824   0.4499770), wk =   0.0015026
        k(  653) = (  -0.2571297   0.1285649   0.3856946), wk =   0.0015026
        k(  654) = (  -0.3214122   0.1928473   0.3214122), wk =   0.0015026
        k(  655) = (  -0.3856946   0.2571297   0.2571297), wk =   0.0015026
        k(  656) = (  -0.4499770   0.3214122   0.1928473), wk =   0.0015026
        k(  657) = (  -0.5142595   0.3856946   0.1285649), wk =   0.0015026
        k(  658) = (  -0.5785419   0.4499770   0.0642824), wk =   0.0015026
        k(  659) = (  -0.6428243   0.5142595  -0.0000000), wk =   0.0015026
        k(  660) = (  -0.7071068   0.5785419  -0.0642824), wk =   0.0015026
        k(  661) = (   0.0000000   0.0000000   0.6428243), wk =   0.0015026
        k(  662) = (  -0.0642824   0.0642824   0.5785419), wk =   0.0015026
        k(  663) = (  -0.1285649   0.1285649   0.5142595), wk =   0.0015026
        k(  664) = (  -0.1928473   0.1928473   0.4499770), wk =   0.0015026
        k(  665) = (  -0.2571297   0.2571297   0.3856946), wk =   0.0015026
        k(  666) = (  -0.3214122   0.3214122   0.3214122), wk =   0.0015026
        k(  667) = (  -0.3856946   0.3856946   0.2571297), wk =   0.0015026
        k(  668) = (  -0.4499770   0.4499770   0.1928473), wk =   0.0015026
        k(  669) = (  -0.5142595   0.5142595   0.1285649), wk =   0.0015026
        k(  670) = (  -0.5785419   0.5785419   0.0642824), wk =   0.0015026
        k(  671) = (  -0.6428243   0.6428243  -0.0000000), wk =   0.0015026
        k(  672) = (   0.0642824   0.0642824   0.7071068), wk =   0.0015026
        k(  673) = (   0.0000000   0.1285649   0.6428243), wk =   0.0015026
        k(  674) = (  -0.0642824   0.1928473   0.5785419), wk =   0.0015026
        k(  675) = (  -0.1285649   0.2571297   0.5142595), wk =   0.0015026
        k(  676) = (  -0.1928473   0.3214122   0.4499770), wk =   0.0015026
        k(  677) = (  -0.2571297   0.3856946   0.3856946), wk =   0.0015026
        k(  678) = (  -0.3214122   0.4499770   0.3214122), wk =   0.0015026
        k(  679) = (  -0.3856946   0.5142595   0.2571297), wk =   0.0015026
        k(  680) = (  -0.4499770   0.5785419   0.1928473), wk =   0.0015026
        k(  681) = (  -0.5142595   0.6428243   0.1285649), wk =   0.0015026
        k(  682) = (  -0.5785419   0.7071068   0.0642824), wk =   0.0015026
        k(  683) = (   0.1285649   0.1285649   0.7713892), wk =   0.0015026
        k(  684) = (   0.0642824   0.1928473   0.7071068), wk =   0.0015026
        k(  685) = (   0.0000000   0.2571297   0.6428243), wk =   0.0015026
        k(  686) = (  -0.0642824   0.3214122   0.5785419), wk =   0.0015026
        k(  687) = (  -0.1285649   0.3856946   0.5142595), wk =   0.0015026
        k(  688) = (  -0.1928473   0.4499770   0.4499770), wk =   0.0015026
        k(  689) = (  -0.2571297   0.5142595   0.3856946), wk =   0.0015026
        k(  690) = (  -0.3214122   0.5785419   0.3214122), wk =   0.0015026
        k(  691) = (  -0.3856946   0.6428243   0.2571297), wk =   0.0015026
        k(  692) = (  -0.4499770   0.7071068   0.1928473), wk =   0.0015026
        k(  693) = (  -0.5142595   0.7713892   0.1285649), wk =   0.0015026
        k(  694) = (   0.1928473   0.1928473   0.8356717), wk =   0.0015026
        k(  695) = (   0.1285649   0.2571297   0.7713892), wk =   0.0015026
        k(  696) = (   0.0642824   0.3214122   0.7071068), wk =   0.0015026
        k(  697) = (   0.0000000   0.3856946   0.6428243), wk =   0.0015026
        k(  698) = (  -0.0642824   0.4499770   0.5785419), wk =   0.0015026
        k(  699) = (  -0.1285649   0.5142595   0.5142595), wk =   0.0015026
        k(  700) = (  -0.1928473   0.5785419   0.4499770), wk =   0.0015026
        k(  701) = (  -0.2571297   0.6428243   0.3856946), wk =   0.0015026
        k(  702) = (  -0.3214122   0.7071068   0.3214122), wk =   0.0015026
        k(  703) = (  -0.3856946   0.7713892   0.2571297), wk =   0.0015026
        k(  704) = (  -0.4499770   0.8356717   0.1928473), wk =   0.0015026
        k(  705) = (   0.2571297   0.2571297   0.8999541), wk =   0.0015026
        k(  706) = (   0.1928473   0.3214122   0.8356717), wk =   0.0015026
        k(  707) = (   0.1285649   0.3856946   0.7713892), wk =   0.0015026
        k(  708) = (   0.0642824   0.4499770   0.7071068), wk =   0.0015026
        k(  709) = (   0.0000000   0.5142595   0.6428243), wk =   0.0015026
        k(  710) = (  -0.0642824   0.5785419   0.5785419), wk =   0.0015026
        k(  711) = (  -0.1285649   0.6428243   0.5142595), wk =   0.0015026
        k(  712) = (  -0.1928473   0.7071068   0.4499770), wk =   0.0015026
        k(  713) = (  -0.2571297   0.7713892   0.3856946), wk =   0.0015026
        k(  714) = (  -0.3214122   0.8356717   0.3214122), wk =   0.0015026
        k(  715) = (  -0.3856946   0.8999541   0.2571297), wk =   0.0015026
        k(  716) = (   0.3214122   0.3214122   0.9642365), wk =   0.0015026
        k(  717) = (   0.2571297   0.3856946   0.8999541), wk =   0.0015026
        k(  718) = (   0.1928473   0.4499770   0.8356717), wk =   0.0015026
        k(  719) = (   0.1285649   0.5142595   0.7713892), wk =   0.0015026
        k(  720) = (   0.0642824   0.5785419   0.7071068), wk =   0.0015026
        k(  721) = (   0.0000000   0.6428243   0.6428243), wk =   0.0015026
        k(  722) = (  -0.0642824   0.7071068   0.5785419), wk =   0.0015026
        k(  723) = (  -0.1285649   0.7713892   0.5142595), wk =   0.0015026
        k(  724) = (  -0.1928473   0.8356717   0.4499770), wk =   0.0015026
        k(  725) = (  -0.2571297   0.8999541   0.3856946), wk =   0.0015026
        k(  726) = (  -0.3214122   0.9642365   0.3214122), wk =   0.0015026
        k(  727) = (  -0.3856946  -0.3856946   0.3856946), wk =   0.0015026
        k(  728) = (  -0.4499770  -0.3214122   0.3214122), wk =   0.0015026
        k(  729) = (  -0.5142595  -0.2571297   0.2571297), wk =   0.0015026
        k(  730) = (  -0.5785419  -0.1928473   0.1928473), wk =   0.0015026
        k(  731) = (  -0.6428243  -0.1285649   0.1285649), wk =   0.0015026
        k(  732) = (  -0.7071068  -0.0642824   0.0642824), wk =   0.0015026
        k(  733) = (  -0.7713892   0.0000000   0.0000000), wk =   0.0015026
        k(  734) = (  -0.8356717   0.0642824  -0.0642824), wk =   0.0015026
        k(  735) = (  -0.8999541   0.1285649  -0.1285649), wk =   0.0015026
        k(  736) = (  -0.9642365   0.1928473  -0.1928473), wk =   0.0015026
        k(  737) = (  -1.0285190   0.2571297  -0.2571297), wk =   0.0015026
        k(  738) = (  -0.3214122  -0.3214122   0.4499770), wk =   0.0015026
        k(  739) = (  -0.3856946  -0.2571297   0.3856946), wk =   0.0015026
        k(  740) = (  -0.4499770  -0.1928473   0.3214122), wk =   0.0015026
        k(  741) = (  -0.5142595  -0.1285649   0.2571297), wk =   0.0015026
        k(  742) = (  -0.5785419  -0.0642824   0.1928473), wk =   0.0015026
        k(  743) = (  -0.6428243  -0.0000000   0.1285649), wk =   0.0015026
        k(  744) = (  -0.7071068   0.0642824   0.0642824), wk =   0.0015026
        k(  745) = (  -0.7713892   0.1285649   0.0000000), wk =   0.0015026
        k(  746) = (  -0.8356717   0.1928473  -0.0642824), wk =   0.0015026
        k(  747) = (  -0.8999541   0.2571297  -0.1285649), wk =   0.0015026
        k(  748) = (  -0.9642365   0.3214122  -0.1928473), wk =   0.0015026
        k(  749) = (  -0.2571297  -0.2571297   0.5142595), wk =   0.0015026
        k(  750) = (  -0.3214122  -0.1928473   0.4499770), wk =   0.0015026
        k(  751) = (  -0.3856946  -0.1285649   0.3856946), wk =   0.0015026
        k(  752) = (  -0.4499770  -0.0642824   0.3214122), wk =   0.0015026
        k(  753) = (  -0.5142595  -0.0000000   0.2571297), wk =   0.0015026
        k(  754) = (  -0.5785419   0.0642824   0.1928473), wk =   0.0015026
        k(  755) = (  -0.6428243   0.1285649   0.1285649), wk =   0.0015026
        k(  756) = (  -0.7071068   0.1928473   0.0642824), wk =   0.0015026
        k(  757) = (  -0.7713892   0.2571297   0.0000000), wk =   0.0015026
        k(  758) = (  -0.8356717   0.3214122  -0.0642824), wk =   0.0015026
        k(  759) = (  -0.8999541   0.3856946  -0.1285649), wk =   0.0015026
        k(  760) = (  -0.1928473  -0.1928473   0.5785419), wk =   0.0015026
        k(  761) = (  -0.2571297  -0.1285649   0.5142595), wk =   0.0015026
        k(  762) = (  -0.3214122  -0.0642824   0.4499770), wk =   0.0015026
        k(  763) = (  -0.3856946  -0.0000000   0.3856946), wk =   0.0015026
        k(  764) = (  -0.4499770   0.0642824   0.3214122), wk =   0.0015026
        k(  765) = (  -0.5142595   0.1285649   0.2571297), wk =   0.0015026
        k(  766) = (  -0.5785419   0.1928473   0.1928473), wk =   0.0015026
        k(  767) = (  -0.6428243   0.2571297   0.1285649), wk =   0.0015026
        k(  768) = (  -0.7071068   0.3214122   0.0642824), wk =   0.0015026
        k(  769) = (  -0.7713892   0.3856946   0.0000000), wk =   0.0015026
        k(  770) = (  -0.8356717   0.4499770  -0.0642824), wk =   0.0015026
        k(  771) = (  -0.1285649  -0.1285649   0.6428243), wk =   0.0015026
        k(  772) = (  -0.1928473  -0.0642824   0.5785419), wk =   0.0015026
        k(  773) = (  -0.2571297  -0.0000000   0.5142595), wk =   0.0015026
        k(  774) = (  -0.3214122   0.0642824   0.4499770), wk =   0.0015026
        k(  775) = (  -0.3856946   0.1285649   0.3856946), wk =   0.0015026
        k(  776) = (  -0.4499770   0.1928473   0.3214122), wk =   0.0015026
        k(  777) = (  -0.5142595   0.2571297   0.2571297), wk =   0.0015026
        k(  778) = (  -0.5785419   0.3214122   0.1928473), wk =   0.0015026
        k(  779) = (  -0.6428243   0.3856946   0.1285649), wk =   0.0015026
        k(  780) = (  -0.7071068   0.4499770   0.0642824), wk =   0.0015026
        k(  781) = (  -0.7713892   0.5142595  -0.0000000), wk =   0.0015026
        k(  782) = (  -0.0642824  -0.0642824   0.7071068), wk =   0.0015026
        k(  783) = (  -0.1285649  -0.0000000   0.6428243), wk =   0.0015026
        k(  784) = (  -0.1928473   0.0642824   0.5785419), wk =   0.0015026
        k(  785) = (  -0.2571297   0.1285649   0.5142595), wk =   0.0015026
        k(  786) = (  -0.3214122   0.1928473   0.4499770), wk =   0.0015026
        k(  787) = (  -0.3856946   0.2571297   0.3856946), wk =   0.0015026
        k(  788) = (  -0.4499770   0.3214122   0.3214122), wk =   0.0015026
        k(  789) = (  -0.5142595   0.3856946   0.2571297), wk =   0.0015026
        k(  790) = (  -0.5785419   0.4499770   0.1928473), wk =   0.0015026
        k(  791) = (  -0.6428243   0.5142595   0.1285649), wk =   0.0015026
        k(  792) = (  -0.7071068   0.5785419   0.0642824), wk =   0.0015026
        k(  793) = (   0.0000000   0.0000000   0.7713892), wk =   0.0015026
        k(  794) = (  -0.0642824   0.0642824   0.7071068), wk =   0.0015026
        k(  795) = (  -0.1285649   0.1285649   0.6428243), wk =   0.0015026
        k(  796) = (  -0.1928473   0.1928473   0.5785419), wk =   0.0015026
        k(  797) = (  -0.2571297   0.2571297   0.5142595), wk =   0.0015026
        k(  798) = (  -0.3214122   0.3214122   0.4499770), wk =   0.0015026
        k(  799) = (  -0.3856946   0.3856946   0.3856946), wk =   0.0015026
        k(  800) = (  -0.4499770   0.4499770   0.3214122), wk =   0.0015026
        k(  801) = (  -0.5142595   0.5142595   0.2571297), wk =   0.0015026
        k(  802) = (  -0.5785419   0.5785419   0.1928473), wk =   0.0015026
        k(  803) = (  -0.6428243   0.6428243   0.1285649), wk =   0.0015026
        k(  804) = (   0.0642824   0.0642824   0.8356717), wk =   0.0015026
        k(  805) = (   0.0000000   0.1285649   0.7713892), wk =   0.0015026
        k(  806) = (  -0.0642824   0.1928473   0.7071068), wk =   0.0015026
        k(  807) = (  -0.1285649   0.2571297   0.6428243), wk =   0.0015026
        k(  808) = (  -0.1928473   0.3214122   0.5785419), wk =   0.0015026
        k(  809) = (  -0.2571297   0.3856946   0.5142595), wk =   0.0015026
        k(  810) = (  -0.3214122   0.4499770   0.4499770), wk =   0.0015026
        k(  811) = (  -0.3856946   0.5142595   0.3856946), wk =   0.0015026
        k(  812) = (  -0.4499770   0.5785419   0.3214122), wk =   0.0015026
        k(  813) = (  -0.5142595   0.6428243   0.2571297), wk =   0.0015026
        k(  814) = (  -0.5785419   0.7071068   0.1928473), wk =   0.0015026
        k(  815) = (   0.1285649   0.1285649   0.8999541), wk =   0.0015026
        k(  816) = (   0.0642824   0.1928473   0.8356717), wk =   0.0015026
        k(  817) = (   0.0000000   0.2571297   0.7713892), wk =   0.0015026
        k(  818) = (  -0.0642824   0.3214122   0.7071068), wk =   0.0015026
        k(  819) = (  -0.1285649   0.3856946   0.6428243), wk =   0.0015026
        k(  820) = (  -0.1928473   0.4499770   0.5785419), wk =   0.0015026
        k(  821) = (  -0.2571297   0.5142595   0.5142595), wk =   0.0015026
        k(  822) = (  -0.3214122   0.5785419   0.4499770), wk =   0.0015026
        k(  823) = (  -0.3856946   0.6428243   0.3856946), wk =   0.0015026
        k(  824) = (  -0.4499770   0.7071068   0.3214122), wk =   0.0015026
        k(  825) = (  -0.5142595   0.7713892   0.2571297), wk =   0.0015026
        k(  826) = (   0.1928473   0.1928473   0.9642365), wk =   0.0015026
        k(  827) = (   0.1285649   0.2571297   0.8999541), wk =   0.0015026
        k(  828) = (   0.0642824   0.3214122   0.8356717), wk =   0.0015026
        k(  829) = (  -0.0000000   0.3856946   0.7713892), wk =   0.0015026
        k(  830) = (  -0.0642824   0.4499770   0.7071068), wk =   0.0015026
        k(  831) = (  -0.1285649   0.5142595   0.6428243), wk =   0.0015026
        k(  832) = (  -0.1928473   0.5785419   0.5785419), wk =   0.0015026
        k(  833) = (  -0.2571297   0.6428243   0.5142595), wk =   0.0015026
        k(  834) = (  -0.3214122   0.7071068   0.4499770), wk =   0.0015026
        k(  835) = (  -0.3856946   0.7713892   0.3856946), wk =   0.0015026
        k(  836) = (  -0.4499770   0.8356717   0.3214122), wk =   0.0015026
        k(  837) = (   0.2571297   0.2571297   1.0285190), wk =   0.0015026
        k(  838) = (   0.1928473   0.3214122   0.9642365), wk =   0.0015026
        k(  839) = (   0.1285649   0.3856946   0.8999541), wk =   0.0015026
        k(  840) = (   0.0642824   0.4499770   0.8356717), wk =   0.0015026
        k(  841) = (   0.0000000   0.5142595   0.7713892), wk =   0.0015026
        k(  842) = (  -0.0642824   0.5785419   0.7071068), wk =   0.0015026
        k(  843) = (  -0.1285649   0.6428243   0.6428243), wk =   0.0015026
        k(  844) = (  -0.1928473   0.7071068   0.5785419), wk =   0.0015026
        k(  845) = (  -0.2571297   0.7713892   0.5142595), wk =   0.0015026
        k(  846) = (  -0.3214122   0.8356717   0.4499770), wk =   0.0015026
        k(  847) = (  -0.3856946   0.8999541   0.3856946), wk =   0.0015026
        k(  848) = (  -0.4499770  -0.4499770   0.4499770), wk =   0.0015026
        k(  849) = (  -0.5142595  -0.3856946   0.3856946), wk =   0.0015026
        k(  850) = (  -0.5785419  -0.3214122   0.3214122), wk =   0.0015026
        k(  851) = (  -0.6428243  -0.2571297   0.2571297), wk =   0.0015026
        k(  852) = (  -0.7071068  -0.1928473   0.1928473), wk =   0.0015026
        k(  853) = (  -0.7713892  -0.1285649   0.1285649), wk =   0.0015026
        k(  854) = (  -0.8356717  -0.0642824   0.0642824), wk =   0.0015026
        k(  855) = (  -0.8999541   0.0000000   0.0000000), wk =   0.0015026
        k(  856) = (  -0.9642365   0.0642824  -0.0642824), wk =   0.0015026
        k(  857) = (  -1.0285190   0.1285649  -0.1285649), wk =   0.0015026
        k(  858) = (  -1.0928014   0.1928473  -0.1928473), wk =   0.0015026
        k(  859) = (  -0.3856946  -0.3856946   0.5142595), wk =   0.0015026
        k(  860) = (  -0.4499770  -0.3214122   0.4499770), wk =   0.0015026
        k(  861) = (  -0.5142595  -0.2571297   0.3856946), wk =   0.0015026
        k(  862) = (  -0.5785419  -0.1928473   0.3214122), wk =   0.0015026
        k(  863) = (  -0.6428243  -0.1285649   0.2571297), wk =   0.0015026
        k(  864) = (  -0.7071068  -0.0642824   0.1928473), wk =   0.0015026
        k(  865) = (  -0.7713892   0.0000000   0.1285649), wk =   0.0015026
        k(  866) = (  -0.8356717   0.0642824   0.0642824), wk =   0.0015026
        k(  867) = (  -0.8999541   0.1285649   0.0000000), wk =   0.0015026
        k(  868) = (  -0.9642365   0.1928473  -0.0642824), wk =   0.0015026
        k(  869) = (  -1.0285190   0.2571297  -0.1285649), wk =   0.0015026
        k(  870) = (  -0.3214122  -0.3214122   0.5785419), wk =   0.0015026
        k(  871) = (  -0.3856946  -0.2571297   0.5142595), wk =   0.0015026
        k(  872) = (  -0.4499770  -0.1928473   0.4499770), wk =   0.0015026
        k(  873) = (  -0.5142595  -0.1285649   0.3856946), wk =   0.0015026
        k(  874) = (  -0.5785419  -0.0642824   0.3214122), wk =   0.0015026
        k(  875) = (  -0.6428243  -0.0000000   0.2571297), wk =   0.0015026
        k(  876) = (  -0.7071068   0.0642824   0.1928473), wk =   0.0015026
        k(  877) = (  -0.7713892   0.1285649   0.1285649), wk =   0.0015026
        k(  878) = (  -0.8356717   0.1928473   0.0642824), wk =   0.0015026
        k(  879) = (  -0.8999541   0.2571297   0.0000000), wk =   0.0015026
        k(  880) = (  -0.9642365   0.3214122  -0.0642824), wk =   0.0015026
        k(  881) = (  -0.2571297  -0.2571297   0.6428243), wk =   0.0015026
        k(  882) = (  -0.3214122  -0.1928473   0.5785419), wk =   0.0015026
        k(  883) = (  -0.3856946  -0.1285649   0.5142595), wk =   0.0015026
        k(  884) = (  -0.4499770  -0.0642824   0.4499770), wk =   0.0015026
        k(  885) = (  -0.5142595  -0.0000000   0.3856946), wk =   0.0015026
        k(  886) = (  -0.5785419   0.0642824   0.3214122), wk =   0.0015026
        k(  887) = (  -0.6428243   0.1285649   0.2571297), wk =   0.0015026
        k(  888) = (  -0.7071068   0.1928473   0.1928473), wk =   0.0015026
        k(  889) = (  -0.7713892   0.2571297   0.1285649), wk =   0.0015026
        k(  890) = (  -0.8356717   0.3214122   0.0642824), wk =   0.0015026
        k(  891) = (  -0.8999541   0.3856946   0.0000000), wk =   0.0015026
        k(  892) = (  -0.1928473  -0.1928473   0.7071068), wk =   0.0015026
        k(  893) = (  -0.2571297  -0.1285649   0.6428243), wk =   0.0015026
        k(  894) = (  -0.3214122  -0.0642824   0.5785419), wk =   0.0015026
        k(  895) = (  -0.3856946  -0.0000000   0.5142595), wk =   0.0015026
        k(  896) = (  -0.4499770   0.0642824   0.4499770), wk =   0.0015026
        k(  897) = (  -0.5142595   0.1285649   0.3856946), wk =   0.0015026
        k(  898) = (  -0.5785419   0.1928473   0.3214122), wk =   0.0015026
        k(  899) = (  -0.6428243   0.2571297   0.2571297), wk =   0.0015026
        k(  900) = (  -0.7071068   0.3214122   0.1928473), wk =   0.0015026
        k(  901) = (  -0.7713892   0.3856946   0.1285649), wk =   0.0015026
        k(  902) = (  -0.8356717   0.4499770   0.0642824), wk =   0.0015026
        k(  903) = (  -0.1285649  -0.1285649   0.7713892), wk =   0.0015026
        k(  904) = (  -0.1928473  -0.0642824   0.7071068), wk =   0.0015026
        k(  905) = (  -0.2571297  -0.0000000   0.6428243), wk =   0.0015026
        k(  906) = (  -0.3214122   0.0642824   0.5785419), wk =   0.0015026
        k(  907) = (  -0.3856946   0.1285649   0.5142595), wk =   0.0015026
        k(  908) = (  -0.4499770   0.1928473   0.4499770), wk =   0.0015026
        k(  909) = (  -0.5142595   0.2571297   0.3856946), wk =   0.0015026
        k(  910) = (  -0.5785419   0.3214122   0.3214122), wk =   0.0015026
        k(  911) = (  -0.6428243   0.3856946   0.2571297), wk =   0.0015026
        k(  912) = (  -0.7071068   0.4499770   0.1928473), wk =   0.0015026
        k(  913) = (  -0.7713892   0.5142595   0.1285649), wk =   0.0015026
        k(  914) = (  -0.0642824  -0.0642824   0.8356717), wk =   0.0015026
        k(  915) = (  -0.1285649   0.0000000   0.7713892), wk =   0.0015026
        k(  916) = (  -0.1928473   0.0642824   0.7071068), wk =   0.0015026
        k(  917) = (  -0.2571297   0.1285649   0.6428243), wk =   0.0015026
        k(  918) = (  -0.3214122   0.1928473   0.5785419), wk =   0.0015026
        k(  919) = (  -0.3856946   0.2571297   0.5142595), wk =   0.0015026
        k(  920) = (  -0.4499770   0.3214122   0.4499770), wk =   0.0015026
        k(  921) = (  -0.5142595   0.3856946   0.3856946), wk =   0.0015026
        k(  922) = (  -0.5785419   0.4499770   0.3214122), wk =   0.0015026
        k(  923) = (  -0.6428243   0.5142595   0.2571297), wk =   0.0015026
        k(  924) = (  -0.7071068   0.5785419   0.1928473), wk =   0.0015026
        k(  925) = (   0.0000000   0.0000000   0.8999541), wk =   0.0015026
        k(  926) = (  -0.0642824   0.0642824   0.8356717), wk =   0.0015026
        k(  927) = (  -0.1285649   0.1285649   0.7713892), wk =   0.0015026
        k(  928) = (  -0.1928473   0.1928473   0.7071068), wk =   0.0015026
        k(  929) = (  -0.2571297   0.2571297   0.6428243), wk =   0.0015026
        k(  930) = (  -0.3214122   0.3214122   0.5785419), wk =   0.0015026
        k(  931) = (  -0.3856946   0.3856946   0.5142595), wk =   0.0015026
        k(  932) = (  -0.4499770   0.4499770   0.4499770), wk =   0.0015026
        k(  933) = (  -0.5142595   0.5142595   0.3856946), wk =   0.0015026
        k(  934) = (  -0.5785419   0.5785419   0.3214122), wk =   0.0015026
        k(  935) = (  -0.6428243   0.6428243   0.2571297), wk =   0.0015026
        k(  936) = (   0.0642824   0.0642824   0.9642365), wk =   0.0015026
        k(  937) = (   0.0000000   0.1285649   0.8999541), wk =   0.0015026
        k(  938) = (  -0.0642824   0.1928473   0.8356717), wk =   0.0015026
        k(  939) = (  -0.1285649   0.2571297   0.7713892), wk =   0.0015026
        k(  940) = (  -0.1928473   0.3214122   0.7071068), wk =   0.0015026
        k(  941) = (  -0.2571297   0.3856946   0.6428243), wk =   0.0015026
        k(  942) = (  -0.3214122   0.4499770   0.5785419), wk =   0.0015026
        k(  943) = (  -0.3856946   0.5142595   0.5142595), wk =   0.0015026
        k(  944) = (  -0.4499770   0.5785419   0.4499770), wk =   0.0015026
        k(  945) = (  -0.5142595   0.6428243   0.3856946), wk =   0.0015026
        k(  946) = (  -0.5785419   0.7071068   0.3214122), wk =   0.0015026
        k(  947) = (   0.1285649   0.1285649   1.0285190), wk =   0.0015026
        k(  948) = (   0.0642824   0.1928473   0.9642365), wk =   0.0015026
        k(  949) = (   0.0000000   0.2571297   0.8999541), wk =   0.0015026
        k(  950) = (  -0.0642824   0.3214122   0.8356717), wk =   0.0015026
        k(  951) = (  -0.1285649   0.3856946   0.7713892), wk =   0.0015026
        k(  952) = (  -0.1928473   0.4499770   0.7071068), wk =   0.0015026
        k(  953) = (  -0.2571297   0.5142595   0.6428243), wk =   0.0015026
        k(  954) = (  -0.3214122   0.5785419   0.5785419), wk =   0.0015026
        k(  955) = (  -0.3856946   0.6428243   0.5142595), wk =   0.0015026
        k(  956) = (  -0.4499770   0.7071068   0.4499770), wk =   0.0015026
        k(  957) = (  -0.5142595   0.7713892   0.3856946), wk =   0.0015026
        k(  958) = (   0.1928473   0.1928473   1.0928014), wk =   0.0015026
        k(  959) = (   0.1285649   0.2571297   1.0285190), wk =   0.0015026
        k(  960) = (   0.0642824   0.3214122   0.9642365), wk =   0.0015026
        k(  961) = (   0.0000000   0.3856946   0.8999541), wk =   0.0015026
        k(  962) = (  -0.0642824   0.4499770   0.8356717), wk =   0.0015026
        k(  963) = (  -0.1285649   0.5142595   0.7713892), wk =   0.0015026
        k(  964) = (  -0.1928473   0.5785419   0.7071068), wk =   0.0015026
        k(  965) = (  -0.2571297   0.6428243   0.6428243), wk =   0.0015026
        k(  966) = (  -0.3214122   0.7071068   0.5785419), wk =   0.0015026
        k(  967) = (  -0.3856946   0.7713892   0.5142595), wk =   0.0015026
        k(  968) = (  -0.4499770   0.8356717   0.4499770), wk =   0.0015026
        k(  969) = (  -0.5142595  -0.5142595   0.5142595), wk =   0.0015026
        k(  970) = (  -0.5785419  -0.4499770   0.4499770), wk =   0.0015026
        k(  971) = (  -0.6428243  -0.3856946   0.3856946), wk =   0.0015026
        k(  972) = (  -0.7071068  -0.3214122   0.3214122), wk =   0.0015026
        k(  973) = (  -0.7713892  -0.2571297   0.2571297), wk =   0.0015026
        k(  974) = (  -0.8356717  -0.1928473   0.1928473), wk =   0.0015026
        k(  975) = (  -0.8999541  -0.1285649   0.1285649), wk =   0.0015026
        k(  976) = (  -0.9642365  -0.0642824   0.0642824), wk =   0.0015026
        k(  977) = (  -1.0285190   0.0000000   0.0000000), wk =   0.0015026
        k(  978) = (  -1.0928014   0.0642824  -0.0642824), wk =   0.0015026
        k(  979) = (  -1.1570838   0.1285649  -0.1285649), wk =   0.0015026
        k(  980) = (  -0.4499770  -0.4499770   0.5785419), wk =   0.0015026
        k(  981) = (  -0.5142595  -0.3856946   0.5142595), wk =   0.0015026
        k(  982) = (  -0.5785419  -0.3214122   0.4499770), wk =   0.0015026
        k(  983) = (  -0.6428243  -0.2571297   0.3856946), wk =   0.0015026
        k(  984) = (  -0.7071068  -0.1928473   0.3214122), wk =   0.0015026
        k(  985) = (  -0.7713892  -0.1285649   0.2571297), wk =   0.0015026
        k(  986) = (  -0.8356717  -0.0642824   0.1928473), wk =   0.0015026
        k(  987) = (  -0.8999541  -0.0000000   0.1285649), wk =   0.0015026
        k(  988) = (  -0.9642365   0.0642824   0.0642824), wk =   0.0015026
        k(  989) = (  -1.0285190   0.1285649   0.0000000), wk =   0.0015026
        k(  990) = (  -1.0928014   0.1928473  -0.0642824), wk =   0.0015026
        k(  991) = (  -0.3856946  -0.3856946   0.6428243), wk =   0.0015026
        k(  992) = (  -0.4499770  -0.3214122   0.5785419), wk =   0.0015026
        k(  993) = (  -0.5142595  -0.2571297   0.5142595), wk =   0.0015026
        k(  994) = (  -0.5785419  -0.1928473   0.4499770), wk =   0.0015026
[...]

    -4.1367   0.9389   2.6341   4.5312   9.2597   9.3755  10.6135  11.7172
    13.5421  16.3778  17.9065  18.4300  19.4288  21.7131  22.0860  24.5835

     occupation numbers 
     1.0000   1.0000   1.0000   1.0000   0.0000   0.0000   0.0000   0.0000
     0.0000   0.0000   0.0000   0.0000   0.0000   0.0000   0.0000   0.0000

          k =-0.3214 0.0643 0.9642 (  2123 PWs)   bands (ev):

    -3.4588  -0.0456   2.2553   4.1132   8.8092   9.7855  11.5151  12.1659
    14.4637  14.7192  18.3060  20.0025  20.4792  21.0366  23.4108  23.7020

     occupation numbers 
     1.0000   1.0000   1.0000   1.0000   0.0000   0.0000   0.0000   0.0000
     0.0000   0.0000   0.0000   0.0000   0.0000   0.0000   0.0000   0.0000

          k =-0.3857 0.1286 0.9000 (  2126 PWs)   bands (ev):

    -2.9489  -0.7399   2.2680   3.8156   8.4410   9.9744  12.2429  12.7333
    13.2333  15.9814  18.0926  18.9786  21.5361  22.0094  23.2131  24.1988

     occupation numbers 
     1.0000   1.0000   1.0000   1.0000   0.0000   0.0000   0.0000   0.0000
     0.0000   0.0000   0.0000   0.0000   0.0000   0.0000   0.0000   0.0000

          k =-0.4500 0.1928 0.8357 (  2118 PWs)   bands (ev):

    -3.2183  -0.3875   2.5000   3.7252   8.2257  10.2377  11.0590  12.3602
    14.9857  16.6708  17.6705  18.9010  19.7370  22.2860  23.7014  24.4081

     occupation numbers 
     1.0000   1.0000   1.0000   1.0000   0.0000   0.0000   0.0000   0.0000
     0.0000   0.0000   0.0000   0.0000   0.0000   0.0000   0.0000   0.0000

          k =-0.5143 0.2571 0.7714 (  2122 PWs)   bands (ev):

    -3.8944   0.6267   2.8882   3.8818   8.0965   9.6732  10.6495  12.4066
    15.3302  16.6279  17.8227  18.4520  20.0291  20.6859  22.2813  24.0917

     occupation numbers 
     1.0000   1.0000   1.0000   1.0000   0.0000   0.0000   0.0000   0.0000
     0.0000   0.0000   0.0000   0.0000   0.0000   0.0000   0.0000   0.0000

          k =-0.5785 0.3214 0.7071 (  2108 PWs)   bands (ev):

    -4.5133   1.7079   3.4696   4.1988   7.7394   9.2544  10.9699  12.0211
    14.4749  15.9776  17.3271  18.4169  19.7399  21.1930  21.2832  23.4833

     occupation numbers 
     1.0000   1.0000   1.0000   1.0000   0.0000   0.0000   0.0000   0.0000
     0.0000   0.0000   0.0000   0.0000   0.0000   0.0000   0.0000   0.0000

          k =-0.6428 0.3857 0.6428 (  2110 PWs)   bands (ev):

    -4.9628   2.5507   4.2812   4.3625   7.6137   9.6556  10.8582  11.1690
    13.9371  14.7423  16.6147  18.0760  19.0790  20.3307  22.9550  23.3920

     occupation numbers 
     1.0000   1.0000   1.0000   1.0000   0.0000   0.0000   0.0000   0.0000
     0.0000   0.0000   0.0000   0.0000   0.0000   0.0000   0.0000   0.0000

          k =-0.7071 0.4500 0.5785 (  2102 PWs)   bands (ev):

    -5.2119   2.9934   4.1879   5.2116   8.3166   9.5961  10.3728  10.7449
    13.0017  14.4395  16.0333  17.4147  18.5984  20.5271  23.0320  24.5980

     occupation numbers 
     1.0000   1.0000   1.0000   1.0004   0.0000   0.0000   0.0000   0.0000
     0.0000   0.0000   0.0000   0.0000   0.0000   0.0000   0.0000   0.0000

          k =-0.7714 0.5143 0.5143 (  2103 PWs)   bands (ev):

    -5.2502   2.7535   4.4647   5.6188   8.6690   9.2663   9.6068  11.7723
    12.4119  14.1953  15.5261  17.1861  19.0440  20.8705  23.0496  24.2043

     occupation numbers 
     1.0000   1.0000   1.0000   1.0629   0.0000   0.0000   0.0000   0.0000
     0.0000   0.0000   0.0000   0.0000   0.0000   0.0000   0.0000   0.0000

          k =-0.0643-0.0643 1.2214 (  2107 PWs)   bands (ev):

    -5.5302   3.8516   5.1414   5.3213   8.2622   9.2753   9.8329  10.8999
    12.6311  13.8953  15.1673  16.9887  18.2838  19.1870  23.5017  25.2971

     occupation numbers 
     1.0000   1.0000   1.0001   1.0027   0.0000   0.0000   0.0000   0.0000
     0.0000   0.0000   0.0000   0.0000   0.0000   0.0000   0.0000   0.0000

          k =-0.1286-0.0000 1.1571 (  2102 PWs)   bands (ev):

    -5.2119   2.9934   4.1879   5.2116   8.3166   9.5961  10.3728  10.7449
    13.0017  14.4395  16.0333  17.4147  18.5984  20.5271  23.0320  24.5980

     occupation numbers 
     1.0000   1.0000   1.0000   1.0004   0.0000   0.0000   0.0000   0.0000
     0.0000   0.0000   0.0000   0.0000   0.0000   0.0000   0.0000   0.0000

          k =-0.1928 0.0643 1.0928 (  2113 PWs)   bands (ev):

    -4.6983   1.6713   3.6216   4.8911   8.6234   9.5458  10.6723  10.8771
    13.5375  15.8434  16.2431  18.1717  19.7997  21.2339  21.9050  23.9120

     occupation numbers 
     1.0000   1.0000   1.0000   1.0000   0.0000   0.0000   0.0000   0.0000
     0.0000   0.0000   0.0000   0.0000   0.0000   0.0000   0.0000   0.0000

          k =-0.2571 0.1286 1.0285 (  2117 PWs)   bands (ev):

    -4.0382   0.3237   3.3644   4.5460   8.6517   9.3287  10.7919  11.7040
    14.6115  15.7138  17.5861  17.8785  20.0743  21.2139  22.7451  23.6911

     occupation numbers 
     1.0000   1.0000   1.0000   1.0000   0.0000   0.0000   0.0000   0.0000
     0.0000   0.0000   0.0000   0.0000   0.0000   0.0000   0.0000   0.0000

          k =-0.3214 0.1928 0.9642 (  2131 PWs)   bands (ev):

    -3.4196  -0.6630   3.2650   4.3348   8.6285   9.1154  10.7243  13.1670
    14.6754  15.8420  17.1009  18.4974  19.4306  21.2079  23.6050  25.3837

     occupation numbers 
     1.0000   1.0000   1.0000   1.0000   0.0000   0.0000   0.0000   0.0000
     0.0000   0.0000   0.0000   0.0000   0.0000   0.0000   0.0000   0.0000

          k =-0.3857 0.2571 0.9000 (  2131 PWs)   bands (ev):

    -3.4196  -0.6630   3.2650   4.3348   8.6285   9.1154  10.7243  13.1670
    14.6754  15.8420  17.1009  18.4974  19.4306  21.2079  23.6050  25.3837

     occupation numbers 
     1.0000   1.0000   1.0000   1.0000   0.0000   0.0000   0.0000   0.0000
     0.0000   0.0000   0.0000   0.0000   0.0000   0.0000   0.0000   0.0000

          k =-0.4500 0.3214 0.8357 (  2117 PWs)   bands (ev):

    -4.0382   0.3237   3.3644   4.5460   8.6517   9.3287  10.7919  11.7040
    14.6115  15.7138  17.5861  17.8785  20.0743  21.2139  22.7451  23.6911

     occupation numbers 
     1.0000   1.0000   1.0000   1.0000   0.0000   0.0000   0.0000   0.0000
     0.0000   0.0000   0.0000   0.0000   0.0000   0.0000   0.0000   0.0000

          k =-0.5143 0.3857 0.7714 (  2113 PWs)   bands (ev):

    -4.6983   1.6713   3.6216   4.8911   8.6234   9.5458  10.6723  10.8771
    13.5375  15.8434  16.2431  18.1717  19.7997  21.2339  21.9050  23.9120

     occupation numbers 
     1.0000   1.0000   1.0000   1.0000   0.0000   0.0000   0.0000   0.0000
     0.0000   0.0000   0.0000   0.0000   0.0000   0.0000   0.0000   0.0000

          k =-0.5785 0.4500 0.7071 (  2102 PWs)   bands (ev):

    -5.2119   2.9934   4.1879   5.2116   8.3166   9.5961  10.3728  10.7449
    13.0017  14.4395  16.0333  17.4147  18.5984  20.5271  23.0320  24.5980

     occupation numbers 
     1.0000   1.0000   1.0000   1.0004   0.0000   0.0000   0.0000   0.0000
     0.0000   0.0000   0.0000   0.0000   0.0000   0.0000   0.0000   0.0000

          k =-0.6428 0.5143 0.6428 (  2107 PWs)   bands (ev):

    -5.5302   3.8516   5.1414   5.3213   8.2622   9.2753   9.8329  10.8999
    12.6311  13.8953  15.1673  16.9887  18.2838  19.1870  23.5017  25.2971

     occupation numbers 
     1.0000   1.0000   1.0001   1.0027   0.0000   0.0000   0.0000   0.0000
     0.0000   0.0000   0.0000   0.0000   0.0000   0.0000   0.0000   0.0000

          k =-0.7071 0.5785 0.5785 (  2103 PWs)   bands (ev):

    -5.6377   4.2283   5.0335   5.8938   8.8663   8.9203   9.0145  10.9041
    12.7603  13.6247  14.8400  16.9865  17.7168  19.1751  22.8582  25.4396

     occupation numbers 
     1.0000   1.0000   1.0000   0.9249   0.0000   0.0000   0.0000   0.0000
     0.0000   0.0000   0.0000   0.0000   0.0000   0.0000   0.0000   0.0000

          k = 0.0000 0.0000 1.2856 (  2117 PWs)   bands (ev):

    -5.7807   5.2152   5.5392   5.5392   8.2347   9.2416   9.2416   9.9518
    12.8874  13.9508  14.3344  17.4191  17.4191  17.7709  22.1617  27.2907

     occupation numbers 
     1.0000   1.0005   1.0363   1.0363   0.0000   0.0000   0.0000   0.0000
     0.0000   0.0000   0.0000   0.0000   0.0000   0.0000   0.0000   0.0000

          k =-0.0643 0.0643 1.2214 (  2107 PWs)   bands (ev):

    -5.5302   3.8516   5.1414   5.3213   8.2622   9.2753   9.8329  10.8999
    12.6311  13.8953  15.1673  16.9887  18.2838  19.1870  23.5017  25.2971

     occupation numbers 
     1.0000   1.0000   1.0001   1.0027   0.0000   0.0000   0.0000   0.0000
     0.0000   0.0000   0.0000   0.0000   0.0000   0.0000   0.0000   0.0000

          k =-0.1286 0.1286 1.1571 (  2112 PWs)   bands (ev):

    -5.0766   2.2268   4.8226   4.9449   8.3715   9.2739  10.1817  11.3191
    13.6972  14.0693  15.3951  17.7035  19.7646  20.9612  23.0208  23.5320

     occupation numbers 
     1.0000   1.0000   1.0000   1.0000   0.0000   0.0000   0.0000   0.0000
     0.0000   0.0000   0.0000   0.0000   0.0000   0.0000   0.0000   0.0000

          k =-0.1928 0.1928 1.0928 (  2117 PWs)   bands (ev):

    -4.4536   0.7154   4.5614   4.6368   8.2099   9.3063  10.1102  12.0921
    14.7831  14.9711  15.4730  19.3068  19.6687  21.1191  22.8180  23.1567

     occupation numbers 
     1.0000   1.0000   1.0000   1.0000   0.0000   0.0000   0.0000   0.0000
     0.0000   0.0000   0.0000   0.0000   0.0000   0.0000   0.0000   0.0000

          k =-0.2571 0.2571 1.0285 (  2108 PWs)   bands (ev):

    -3.7807  -0.4819   4.2624   4.5977   8.0672   9.2589   9.8698  13.3113
    14.6805  16.3834  17.0121  17.7522  18.5155  20.7872  23.3371  24.9208

     occupation numbers 
     1.0000   1.0000   1.0000   1.0000   0.0000   0.0000   0.0000   0.0000
     0.0000   0.0000   0.0000   0.0000   0.0000   0.0000   0.0000   0.0000

          k =-0.3214 0.3214 0.9642 (  2116 PWs)   bands (ev):

    -3.5083  -0.8862   4.0839   4.7006   8.0410   9.3120   9.6828  13.9446
    15.3013  15.6635  16.9092  18.3438  18.6198  19.4480  24.7082  25.8600

     occupation numbers 
     1.0000   1.0000   1.0000   1.0000   0.0000   0.0000   0.0000   0.0000
     0.0000   0.0000   0.0000   0.0000   0.0000   0.0000   0.0000   0.0000

          k =-0.3857 0.3857 0.9000 (  2122 PWs)   bands (ev):

    -3.9956  -0.1328   4.0469   4.9290   8.1436   9.5047   9.6058  13.6705
    14.0199  15.0958  17.1806  17.8596  20.3329  20.4096  22.6069  24.0882

     occupation numbers 
     1.0000   1.0000   1.0000   1.0000   0.0000   0.0000   0.0000   0.0000
     0.0000   0.0000   0.0000   0.0000   0.0000   0.0000   0.0000   0.0000

          k =-0.4500 0.4500 0.8357 (  2121 PWs)   bands (ev):

    -4.6775   1.1993   4.1676   5.2539   8.3641   9.5432   9.7245  12.6480
    12.8327  15.2226  15.5517  18.6433  20.0635  21.8800  21.9188  23.5261

     occupation numbers 
     1.0000   1.0000   1.0000   1.0009   0.0000   0.0000   0.0000   0.0000
     0.0000   0.0000   0.0000   0.0000   0.0000   0.0000   0.0000   0.0000

          k =-0.5143 0.5143 0.7714 (  2103 PWs)   bands (ev):

    -5.2502   2.7535   4.4647   5.6188   8.6690   9.2663   9.6068  11.7723
    12.4119  14.1953  15.5261  17.1861  19.0440  20.8705  23.0496  24.2043

     occupation numbers 
     1.0000   1.0000   1.0000   1.0629   0.0000   0.0000   0.0000   0.0000
     0.0000   0.0000   0.0000   0.0000   0.0000   0.0000   0.0000   0.0000

          k =-0.5785 0.5785 0.7071 (  2103 PWs)   bands (ev):

    -5.6377   4.2283   5.0335   5.8938   8.8663   8.9203   9.0145  10.9041
    12.7603  13.6247  14.8400  16.9865  17.7168  19.1751  22.8582  25.4396

     occupation numbers 
     1.0000   1.0000   1.0000   0.9249   0.0000   0.0000   0.0000   0.0000
     0.0000   0.0000   0.0000   0.0000   0.0000   0.0000   0.0000   0.0000

          k =-0.6428 0.6428 0.6428 (  2106 PWs)   bands (ev):

    -5.8170   5.0354   5.8676   5.8676   8.5625   8.8173   8.8173  10.0186
    13.4670  13.4670  14.1801  16.7780  17.8440  17.8440  21.8489  27.7454

     occupation numbers 
     1.0000   1.0000   0.9714   0.9714   0.0000   0.0000   0.0000   0.0000
     0.0000   0.0000   0.0000   0.0000   0.0000   0.0000   0.0000   0.0000

     the Fermi energy is     6.0992 ev

!    total energy              =     -17.05044099 Ry
     estimated scf accuracy    <          6.5E-12 Ry
     smearing contrib. (-TS)   =       0.00020297 Ry
     internal energy E=F+TS    =     -17.05064396 Ry

     The total energy is F=E-TS. E is the sum of the following terms:
     one-electron contribution =       4.84941784 Ry
     hartree contribution      =       1.09509317 Ry
     xc contribution           =      -6.19782712 Ry
     ewald contribution        =     -16.79732785 Ry

     convergence has been achieved in   1 iterations

     Forces acting on atoms (cartesian axes, Ry/au):

     atom    1 type  1   force =    -0.00000000    0.00000000   -0.00000000
     atom    2 type  1   force =     0.00000000   -0.00000000    0.00000000
     The non-local contrib.  to forces
     atom    1 type  1   force =    -0.00000001    0.00000000   -0.00000000
     atom    2 type  1   force =     0.00000000   -0.00000001    0.00000001
     The ionic contribution  to forces
     atom    1 type  1   force =     0.00000000   -0.00000000   -0.00000000
     atom    2 type  1   force =    -0.00000000    0.00000000    0.00000000
     The local contribution  to forces
     atom    1 type  1   force =     0.00000000    0.00000000   -0.00000000
     atom    2 type  1   force =    -0.00000001    0.00000000   -0.00000000
     The core correction contribution to forces
     atom    1 type  1   force =     0.00000000   -0.00000000   -0.00000000
     atom    2 type  1   force =    -0.00000000    0.00000000   -0.00000000
     The Hubbard contrib.    to forces
     atom    1 type  1   force =     0.00000000    0.00000000    0.00000000
     atom    2 type  1   force =     0.00000000    0.00000000    0.00000000
     The SCF correction term to forces
     atom    1 type  1   force =     0.00000000   -0.00000000    0.00000000
     atom    2 type  1   force =     0.00000000    0.00000000   -0.00000000

     Total force =     0.000000     Total SCF correction =     0.000000
     SCF correction compared to forces is large: reduce conv_thr to get better values


     Computing stress (Cartesian axis) and pressure

          total   stress  (Ry/bohr**3)                   (kbar)     P=      -18.61
  -0.00012652   0.00000000   0.00000000          -18.61        0.00        0.00
   0.00000000  -0.00012652  -0.00000000            0.00      -18.61       -0.00
   0.00000000  -0.00000000  -0.00012652            0.00       -0.00      -18.61

     kinetic stress (kbar)   2234.73      0.00      0.00
                                0.00   2234.73     -0.00
                                0.00     -0.00   2234.73

     local   stress (kbar)   -419.01      0.00      0.00
                                0.00   -419.01     -0.00
                                0.00     -0.00   -419.01

     nonloc. stress (kbar)   1972.44     -0.00      0.00
                               -0.00   1972.44     -0.00
                                0.00     -0.00   1972.44

     hartree stress (kbar)    198.74      0.00     -0.00
                                0.00    198.74      0.00
                               -0.00      0.00    198.74

     exc-cor stress (kbar)   -149.78      0.00      0.00
                                0.00   -149.78      0.00
                                0.00      0.00   -149.78

     corecor stress (kbar)   -807.24      0.00     -0.00
                                0.00   -807.24     -0.00
                               -0.00     -0.00   -807.24

     ewald   stress (kbar)  -3048.49     -0.00     -0.00
                               -0.00  -3048.49      0.00
                               -0.00      0.00  -3048.49

     hubbard stress (kbar)      0.00      0.00      0.00
                                0.00      0.00      0.00
                                0.00      0.00      0.00

     DFT-D   stress (kbar)      0.00      0.00      0.00
                                0.00      0.00      0.00
                                0.00      0.00      0.00

     XDM     stress (kbar)      0.00      0.00      0.00
                                0.00      0.00      0.00
                                0.00      0.00      0.00

     dft-nl  stress (kbar)      0.00      0.00      0.00
                                0.00      0.00      0.00
                                0.00      0.00      0.00

     TS-vdW  stress (kbar)      0.00      0.00      0.00
                                0.00      0.00      0.00
                                0.00      0.00      0.00

     MDB     stress (kbar)      0.00      0.00      0.00
                                0.00      0.00      0.00
                                0.00      0.00      0.00

     3D-RISM stress (kbar)      0.00      0.00      0.00
                                0.00      0.00      0.00
                                0.00      0.00      0.00


     Writing all to output data dir ./out/aiida.save/ :
     XML data file, charge density, pseudopotentials, collected wavefunctions
 
     init_run     :      7.07s CPU      7.71s WALL (       1 calls)
     electrons    :    149.63s CPU    150.82s WALL (       1 calls)
     forces       :      2.14s CPU      2.14s WALL (       1 calls)
     stress       :     12.10s CPU     12.13s WALL (       1 calls)

     Called by init_run:
     wfcinit      :      6.80s CPU      7.43s WALL (       1 calls)
     wfcinit:atom :      0.14s CPU      0.19s WALL (    1331 calls)
     wfcinit:wfcr :      5.42s CPU      5.73s WALL (    1331 calls)
     potinit      :      0.00s CPU      0.00s WALL (       1 calls)
     hinit0       :      0.04s CPU      0.05s WALL (       1 calls)

     Called by electrons:
     c_bands      :    143.37s CPU    144.51s WALL (       2 calls)
     sum_band     :      6.25s CPU      6.29s WALL (       2 calls)
     v_of_rho     :      0.00s CPU      0.00s WALL (       2 calls)
     v_h          :      0.00s CPU      0.00s WALL (       2 calls)
     v_xc         :      0.00s CPU      0.00s WALL (       4 calls)
     mix_rho      :      0.00s CPU      0.00s WALL (       2 calls)

     Called by c_bands:
     init_us_2    :      3.90s CPU      4.09s WALL (    9317 calls)
     cegterg      :    137.90s CPU    138.99s WALL (    2662 calls)

     Called by sum_band:
     sum_band:wei :      0.07s CPU      0.07s WALL (       2 calls)
     sum_band:loo :      6.18s CPU      6.22s WALL (       2 calls)
     sum_band:buf :      0.17s CPU      0.17s WALL (    2662 calls)
     sum_band:ini :      1.13s CPU      1.14s WALL (    2662 calls)

     Called by *egterg:
     cdiaghg      :     12.72s CPU     12.84s WALL (   50992 calls)
     cegterg:over :     10.40s CPU     10.50s WALL (   49661 calls)
     cegterg:upda :      5.27s CPU      5.32s WALL (   49661 calls)
     cegterg:last :      8.36s CPU      8.41s WALL (   27078 calls)
     h_psi        :    102.89s CPU    103.97s WALL (   53654 calls)
     g_psi        :      1.70s CPU      1.72s WALL (   49661 calls)

     Called by h_psi:
     h_psi:calbec :      6.47s CPU      6.53s WALL (   53654 calls)
     vloc_psi     :     88.56s CPU     89.47s WALL (   53654 calls)
                                        0.00s GPU  (   53654 calls)
     add_vuspsi   :      6.59s CPU      6.66s WALL (   53654 calls)

     General routines
     calbec       :     10.93s CPU     11.01s WALL (   76281 calls)
     fft          :      0.00s CPU      0.01s WALL (      14 calls)
     ffts         :      0.00s CPU      0.00s WALL (       2 calls)
     fftw         :     80.24s CPU     81.05s WALL (  910798 calls)
 
     Parallel routines
 
     PWSCF        :   2m51.22s CPU   2m53.46s WALL

 
   This run was terminated on:  14: 1:53  16Mar2026            

=------------------------------------------------------------------------------=
   JOB DONE.
=------------------------------------------------------------------------------=
