
     Program PWSCF v.7.4.1 starts on  4Feb2026 at 14:19: 0 

     This program is part of the open-source Quantum ESPRESSO suite
     for quantum simulation of materials; please cite
         "P. Giannozzi et al., J. Phys.:Condens. Matter 21 395502 (2009);
         "P. Giannozzi et al., J. Phys.:Condens. Matter 29 465901 (2017);
         "P. Giannozzi et al., J. Chem. Phys. 152 154105 (2020);
          URL http://www.quantum-espresso.org", 
     in publications or presentations arising from this work. More details at
     http://www.quantum-espresso.org/quote

     Parallel version (MPI), running on     1 processors

     MPI processes distributed on     1 nodes
     115128 MiB available memory on the printing compute node when the environment starts
 
     Reading input from aiida.in

     Current dimensions of program PWSCF are:
     Max number of different atomic species (ntypx) = 10
     Max number of k-points (npk) =  40000
     Max angular momentum in pseudopotentials (lmaxx) =  4
     Message from routine set_cutoff:
     ecutrho < 4*ecutwfc, are you sure?
     Message from routine setup:
     using ibrav=0 with symmetry is DISCOURAGED, use correct ibrav instead
 
     Subspace diagonalization in iterative solution of the eigenvalue problem:
     a serial algorithm will be used

 
     G-vector sticks info
     --------------------
     sticks:   dense  smooth     PW     G-vecs:    dense   smooth      PW
     Sum         463     463    253                 6615     6615    2733
 
     Using Slab Decomposition
 


     bravais-lattice index     =            0
     lattice parameter (alat)  =       7.2565  a.u.
     unit-cell volume          =     270.1851 (a.u.)^3
     number of atoms/cell      =            2
     number of atomic types    =            1
     number of electrons       =         8.00
     number of Kohn-Sham states=           12
     kinetic-energy cutoff     =      60.0000  Ry
     charge density cutoff     =     128.0000  Ry
     scf convergence threshold =      4.0E-10
     mixing beta               =       0.4000
     number of iterations used =            8  plain     mixing
     Exchange-correlation= SLA  PW   NOGX NOGC
                           (   1   4   0   0   0   0   0)

     celldm(1)=   7.256471  celldm(2)=   0.000000  celldm(3)=   0.000000
     celldm(4)=   0.000000  celldm(5)=   0.000000  celldm(6)=   0.000000

     crystal axes: (cart. coord. in units of alat)
               a(1) = (   0.000000   0.707107   0.707107 )  
               a(2) = (   0.707107   0.000000   0.707107 )  
               a(3) = (   0.707107   0.707107   0.000000 )  

     reciprocal axes: (cart. coord. in units 2 pi/alat)
               b(1) = ( -0.707107  0.707107  0.707107 )  
               b(2) = (  0.707107 -0.707107  0.707107 )  
               b(3) = (  0.707107  0.707107 -0.707107 )  


     PseudoPot. # 1 for Si read from file:
     ./pseudo/Si.upf
     MD5 check sum: 9e2d726316af3d4752eea8ab0afbb951
     Pseudo is Norm-conserving + core correction, Zval =  4.0
     Generated using ONCVPSP code by D. R. Hamann
     Using radial grid of 1510 points,  6 beta functions with: 
                l(1) =   0
                l(2) =   0
                l(3) =   1
                l(4) =   1
                l(5) =   2
                l(6) =   2

     atomic species   valence    mass     pseudopotential
     Si                4.00    28.08550     Si( 1.00)

     48 Sym. Ops., with inversion, found (24 have fractional translation)


                                    s                        frac. trans.

      isym =  1     identity                                     

 cryst.   s( 1) = (     1          0          0      )
                  (     0          1          0      )
                  (     0          0          1      )

 cart.    s( 1) = (  1.0000000  0.0000000  0.0000000 )
                  (  0.0000000  1.0000000  0.0000000 )
                  (  0.0000000  0.0000000  1.0000000 )


      isym =  2     180 deg rotation - cart. axis [0,0,1]        

 cryst.   s( 2) = (     0          1         -1      )
                  (     1          0         -1      )
                  (     0          0         -1      )

 cart.    s( 2) = ( -1.0000000  0.0000000  0.0000000 )
                  (  0.0000000 -1.0000000  0.0000000 )
                  (  0.0000000  0.0000000  1.0000000 )


      isym =  3     180 deg rotation - cart. axis [0,1,0]        

 cryst.   s( 3) = (     0         -1          1      )
                  (     0         -1          0      )
                  (     1         -1          0      )

 cart.    s( 3) = ( -1.0000000  0.0000000  0.0000000 )
                  (  0.0000000  1.0000000  0.0000000 )
                  (  0.0000000  0.0000000 -1.0000000 )


      isym =  4     180 deg rotation - cart. axis [1,0,0]        

 cryst.   s( 4) = (    -1          0          0      )
                  (    -1          0          1      )
                  (    -1          1          0      )

 cart.    s( 4) = (  1.0000000  0.0000000  0.0000000 )
                  (  0.0000000 -1.0000000  0.0000000 )
                  (  0.0000000  0.0000000 -1.0000000 )


      isym =  5     180 deg rotation - cart. axis [1,1,0]        

 cryst.   s( 5) = (    -1          0          1      )    f =( -0.2500000 )
                  (     0         -1          1      )       ( -0.2500000 )
                  (     0          0          1      )       ( -0.2500000 )

 cart.    s( 5) = (  0.0000000  1.0000000  0.0000000 )    f =( -0.3535534 )
                  (  1.0000000  0.0000000  0.0000000 )       ( -0.3535534 )
                  (  0.0000000  0.0000000 -1.0000000 )       ( -0.3535534 )


      isym =  6     180 deg rotation - cart. axis [1,-1,0]       

 cryst.   s( 6) = (     0         -1          0      )    f =( -0.2500000 )
                  (    -1          0          0      )       ( -0.2500000 )
                  (     0          0         -1      )       ( -0.2500000 )

 cart.    s( 6) = (  0.0000000 -1.0000000  0.0000000 )    f =( -0.3535534 )
                  ( -1.0000000  0.0000000  0.0000000 )       ( -0.3535534 )
                  (  0.0000000  0.0000000 -1.0000000 )       ( -0.3535534 )


      isym =  7      90 deg rotation - cart. axis [0,0,-1]       

 cryst.   s( 7) = (     0          1          0      )    f =( -0.2500000 )
                  (     0          1         -1      )       ( -0.2500000 )
                  (    -1          1          0      )       ( -0.2500000 )

 cart.    s( 7) = (  0.0000000  1.0000000  0.0000000 )    f =( -0.3535534 )
                  ( -1.0000000  0.0000000  0.0000000 )       ( -0.3535534 )
                  (  0.0000000  0.0000000  1.0000000 )       ( -0.3535534 )


      isym =  8      90 deg rotation - cart. axis [0,0,1]        

 cryst.   s( 8) = (     1          0         -1      )    f =( -0.2500000 )
                  (     1          0          0      )       ( -0.2500000 )
                  (     1         -1          0      )       ( -0.2500000 )

 cart.    s( 8) = (  0.0000000 -1.0000000  0.0000000 )    f =( -0.3535534 )
                  (  1.0000000  0.0000000  0.0000000 )       ( -0.3535534 )
                  (  0.0000000  0.0000000  1.0000000 )       ( -0.3535534 )


      isym =  9     180 deg rotation - cart. axis [1,0,1]        

 cryst.   s( 9) = (    -1          1          0      )    f =( -0.2500000 )
                  (     0          1          0      )       ( -0.2500000 )
                  (     0          1         -1      )       ( -0.2500000 )

 cart.    s( 9) = (  0.0000000  0.0000000  1.0000000 )    f =( -0.3535534 )
                  (  0.0000000 -1.0000000  0.0000000 )       ( -0.3535534 )
                  (  1.0000000  0.0000000  0.0000000 )       ( -0.3535534 )


      isym = 10     180 deg rotation - cart. axis [-1,0,1]       

 cryst.   s(10) = (     0          0         -1      )    f =( -0.2500000 )
                  (     0         -1          0      )       ( -0.2500000 )
                  (    -1          0          0      )       ( -0.2500000 )

 cart.    s(10) = (  0.0000000  0.0000000 -1.0000000 )    f =( -0.3535534 )
                  (  0.0000000 -1.0000000  0.0000000 )       ( -0.3535534 )
                  ( -1.0000000  0.0000000  0.0000000 )       ( -0.3535534 )


      isym = 11      90 deg rotation - cart. axis [0,1,0]        

 cryst.   s(11) = (     0          0          1      )    f =( -0.2500000 )
                  (    -1          0          1      )       ( -0.2500000 )
                  (     0         -1          1      )       ( -0.2500000 )

 cart.    s(11) = (  0.0000000  0.0000000  1.0000000 )    f =( -0.3535534 )
                  (  0.0000000  1.0000000  0.0000000 )       ( -0.3535534 )
                  ( -1.0000000  0.0000000  0.0000000 )       ( -0.3535534 )


      isym = 12      90 deg rotation - cart. axis [0,-1,0]       

 cryst.   s(12) = (     1         -1          0      )    f =( -0.2500000 )
                  (     1          0         -1      )       ( -0.2500000 )
                  (     1          0          0      )       ( -0.2500000 )

 cart.    s(12) = (  0.0000000  0.0000000 -1.0000000 )    f =( -0.3535534 )
                  (  0.0000000  1.0000000  0.0000000 )       ( -0.3535534 )
                  (  1.0000000  0.0000000  0.0000000 )       ( -0.3535534 )


      isym = 13     180 deg rotation - cart. axis [0,1,1]        

 cryst.   s(13) = (     1          0          0      )    f =( -0.2500000 )
                  (     1         -1          0      )       ( -0.2500000 )
                  (     1          0         -1      )       ( -0.2500000 )

 cart.    s(13) = ( -1.0000000  0.0000000  0.0000000 )    f =( -0.3535534 )
                  (  0.0000000  0.0000000  1.0000000 )       ( -0.3535534 )
                  (  0.0000000  1.0000000  0.0000000 )       ( -0.3535534 )


      isym = 14     180 deg rotation - cart. axis [0,1,-1]       

 cryst.   s(14) = (    -1          0          0      )    f =( -0.2500000 )
                  (     0          0         -1      )       ( -0.2500000 )
                  (     0         -1          0      )       ( -0.2500000 )

 cart.    s(14) = ( -1.0000000  0.0000000  0.0000000 )    f =( -0.3535534 )
                  (  0.0000000  0.0000000 -1.0000000 )       ( -0.3535534 )
                  (  0.0000000 -1.0000000  0.0000000 )       ( -0.3535534 )


      isym = 15      90 deg rotation - cart. axis [-1,0,0]       

 cryst.   s(15) = (     0         -1          1      )    f =( -0.2500000 )
                  (     0          0          1      )       ( -0.2500000 )
                  (    -1          0          1      )       ( -0.2500000 )

 cart.    s(15) = (  1.0000000  0.0000000  0.0000000 )    f =( -0.3535534 )
                  (  0.0000000  0.0000000  1.0000000 )       ( -0.3535534 )
                  (  0.0000000 -1.0000000  0.0000000 )       ( -0.3535534 )


      isym = 16      90 deg rotation - cart. axis [1,0,0]        

 cryst.   s(16) = (     0          1         -1      )    f =( -0.2500000 )
                  (    -1          1          0      )       ( -0.2500000 )
                  (     0          1          0      )       ( -0.2500000 )

 cart.    s(16) = (  1.0000000  0.0000000  0.0000000 )    f =( -0.3535534 )
                  (  0.0000000  0.0000000 -1.0000000 )       ( -0.3535534 )
                  (  0.0000000  1.0000000  0.0000000 )       ( -0.3535534 )


      isym = 17     120 deg rotation - cart. axis [-1,-1,-1]     

 cryst.   s(17) = (     0          0          1      )
                  (     1          0          0      )
                  (     0          1          0      )

 cart.    s(17) = (  0.0000000  1.0000000  0.0000000 )
                  (  0.0000000  0.0000000  1.0000000 )
                  (  1.0000000  0.0000000  0.0000000 )


      isym = 18     120 deg rotation - cart. axis [-1,1,1]       

 cryst.   s(18) = (     1         -1          0      )
                  (     0         -1          1      )
                  (     0         -1          0      )

 cart.    s(18) = (  0.0000000 -1.0000000  0.0000000 )
                  (  0.0000000  0.0000000  1.0000000 )
                  ( -1.0000000  0.0000000  0.0000000 )


      isym = 19     120 deg rotation - cart. axis [1,1,-1]       

 cryst.   s(19) = (    -1          1          0      )
                  (    -1          0          0      )
                  (    -1          0          1      )

 cart.    s(19) = (  0.0000000  1.0000000  0.0000000 )
                  (  0.0000000  0.0000000 -1.0000000 )
                  ( -1.0000000  0.0000000  0.0000000 )


      isym = 20     120 deg rotation - cart. axis [1,-1,1]       

 cryst.   s(20) = (     0          0         -1      )
                  (     0          1         -1      )
                  (     1          0         -1      )

 cart.    s(20) = (  0.0000000 -1.0000000  0.0000000 )
                  (  0.0000000  0.0000000 -1.0000000 )
                  (  1.0000000  0.0000000  0.0000000 )


      isym = 21     120 deg rotation - cart. axis [1,1,1]        

 cryst.   s(21) = (     0          1          0      )
                  (     0          0          1      )
                  (     1          0          0      )

 cart.    s(21) = (  0.0000000  0.0000000  1.0000000 )
                  (  1.0000000  0.0000000  0.0000000 )
                  (  0.0000000  1.0000000  0.0000000 )


      isym = 22     120 deg rotation - cart. axis [-1,1,-1]      

 cryst.   s(22) = (    -1          0          1      )
                  (    -1          1          0      )
                  (    -1          0          0      )

 cart.    s(22) = (  0.0000000  0.0000000  1.0000000 )
                  ( -1.0000000  0.0000000  0.0000000 )
                  (  0.0000000 -1.0000000  0.0000000 )


      isym = 23     120 deg rotation - cart. axis [1,-1,-1]      

 cryst.   s(23) = (     1          0         -1      )
                  (     0          0         -1      )
                  (     0          1         -1      )

 cart.    s(23) = (  0.0000000  0.0000000 -1.0000000 )
                  ( -1.0000000  0.0000000  0.0000000 )
                  (  0.0000000  1.0000000  0.0000000 )


      isym = 24     120 deg rotation - cart. axis [-1,-1,1]      

 cryst.   s(24) = (     0         -1          0      )
                  (     1         -1          0      )
                  (     0         -1          1      )

 cart.    s(24) = (  0.0000000  0.0000000 -1.0000000 )
                  (  1.0000000  0.0000000  0.0000000 )
                  (  0.0000000 -1.0000000  0.0000000 )


      isym = 25     inversion                                    

 cryst.   s(25) = (    -1          0          0      )    f =( -0.2500000 )
                  (     0         -1          0      )       ( -0.2500000 )
                  (     0          0         -1      )       ( -0.2500000 )

 cart.    s(25) = ( -1.0000000  0.0000000  0.0000000 )    f =( -0.3535534 )
                  (  0.0000000 -1.0000000  0.0000000 )       ( -0.3535534 )
                  (  0.0000000  0.0000000 -1.0000000 )       ( -0.3535534 )


      isym = 26     inv. 180 deg rotation - cart. axis [0,0,1]   

 cryst.   s(26) = (     0         -1          1      )    f =( -0.2500000 )
                  (    -1          0          1      )       ( -0.2500000 )
                  (     0          0          1      )       ( -0.2500000 )

 cart.    s(26) = (  1.0000000  0.0000000  0.0000000 )    f =( -0.3535534 )
                  (  0.0000000  1.0000000  0.0000000 )       ( -0.3535534 )
                  (  0.0000000  0.0000000 -1.0000000 )       ( -0.3535534 )


      isym = 27     inv. 180 deg rotation - cart. axis [0,1,0]   

 cryst.   s(27) = (     0          1         -1      )    f =( -0.2500000 )
                  (     0          1          0      )       ( -0.2500000 )
                  (    -1          1          0      )       ( -0.2500000 )

 cart.    s(27) = (  1.0000000  0.0000000  0.0000000 )    f =( -0.3535534 )
                  (  0.0000000 -1.0000000  0.0000000 )       ( -0.3535534 )
                  (  0.0000000  0.0000000  1.0000000 )       ( -0.3535534 )


      isym = 28     inv. 180 deg rotation - cart. axis [1,0,0]   

 cryst.   s(28) = (     1          0          0      )    f =( -0.2500000 )
                  (     1          0         -1      )       ( -0.2500000 )
                  (     1         -1          0      )       ( -0.2500000 )

 cart.    s(28) = ( -1.0000000  0.0000000  0.0000000 )    f =( -0.3535534 )
                  (  0.0000000  1.0000000  0.0000000 )       ( -0.3535534 )
                  (  0.0000000  0.0000000  1.0000000 )       ( -0.3535534 )


      isym = 29     inv. 180 deg rotation - cart. axis [1,1,0]   

 cryst.   s(29) = (     1          0         -1      )
                  (     0          1         -1      )
                  (     0          0         -1      )

 cart.    s(29) = (  0.0000000 -1.0000000  0.0000000 )
                  ( -1.0000000  0.0000000  0.0000000 )
                  (  0.0000000  0.0000000  1.0000000 )


      isym = 30     inv. 180 deg rotation - cart. axis [1,-1,0]  

 cryst.   s(30) = (     0          1          0      )
                  (     1          0          0      )
                  (     0          0          1      )

 cart.    s(30) = (  0.0000000  1.0000000  0.0000000 )
                  (  1.0000000  0.0000000  0.0000000 )
                  (  0.0000000  0.0000000  1.0000000 )


      isym = 31     inv.  90 deg rotation - cart. axis [0,0,-1]  

 cryst.   s(31) = (     0         -1          0      )
                  (     0         -1          1      )
                  (     1         -1          0      )

 cart.    s(31) = (  0.0000000 -1.0000000  0.0000000 )
                  (  1.0000000  0.0000000  0.0000000 )
                  (  0.0000000  0.0000000 -1.0000000 )


      isym = 32     inv.  90 deg rotation - cart. axis [0,0,1]   

 cryst.   s(32) = (    -1          0          1      )
                  (    -1          0          0      )
                  (    -1          1          0      )

 cart.    s(32) = (  0.0000000  1.0000000  0.0000000 )
                  ( -1.0000000  0.0000000  0.0000000 )
                  (  0.0000000  0.0000000 -1.0000000 )


      isym = 33     inv. 180 deg rotation - cart. axis [1,0,1]   

 cryst.   s(33) = (     1         -1          0      )
                  (     0         -1          0      )
                  (     0         -1          1      )

 cart.    s(33) = (  0.0000000  0.0000000 -1.0000000 )
                  (  0.0000000  1.0000000  0.0000000 )
                  ( -1.0000000  0.0000000  0.0000000 )


      isym = 34     inv. 180 deg rotation - cart. axis [-1,0,1]  

 cryst.   s(34) = (     0          0          1      )
                  (     0          1          0      )
                  (     1          0          0      )

 cart.    s(34) = (  0.0000000  0.0000000  1.0000000 )
                  (  0.0000000  1.0000000  0.0000000 )
                  (  1.0000000  0.0000000  0.0000000 )


      isym = 35     inv.  90 deg rotation - cart. axis [0,1,0]   

 cryst.   s(35) = (     0          0         -1      )
                  (     1          0         -1      )
                  (     0          1         -1      )

 cart.    s(35) = (  0.0000000  0.0000000 -1.0000000 )
                  (  0.0000000 -1.0000000  0.0000000 )
                  (  1.0000000  0.0000000  0.0000000 )


      isym = 36     inv.  90 deg rotation - cart. axis [0,-1,0]  

 cryst.   s(36) = (    -1          1          0      )
                  (    -1          0          1      )
                  (    -1          0          0      )

 cart.    s(36) = (  0.0000000  0.0000000  1.0000000 )
                  (  0.0000000 -1.0000000  0.0000000 )
                  ( -1.0000000  0.0000000  0.0000000 )


      isym = 37     inv. 180 deg rotation - cart. axis [0,1,1]   

 cryst.   s(37) = (    -1          0          0      )
                  (    -1          1          0      )
                  (    -1          0          1      )

 cart.    s(37) = (  1.0000000  0.0000000  0.0000000 )
                  (  0.0000000  0.0000000 -1.0000000 )
                  (  0.0000000 -1.0000000  0.0000000 )


      isym = 38     inv. 180 deg rotation - cart. axis [0,1,-1]  

 cryst.   s(38) = (     1          0          0      )
                  (     0          0          1      )
                  (     0          1          0      )

 cart.    s(38) = (  1.0000000  0.0000000  0.0000000 )
                  (  0.0000000  0.0000000  1.0000000 )
                  (  0.0000000  1.0000000  0.0000000 )


      isym = 39     inv.  90 deg rotation - cart. axis [-1,0,0]  

 cryst.   s(39) = (     0          1         -1      )
                  (     0          0         -1      )
                  (     1          0         -1      )

 cart.    s(39) = ( -1.0000000  0.0000000  0.0000000 )
                  (  0.0000000  0.0000000 -1.0000000 )
                  (  0.0000000  1.0000000  0.0000000 )


      isym = 40     inv.  90 deg rotation - cart. axis [1,0,0]   

 cryst.   s(40) = (     0         -1          1      )
                  (     1         -1          0      )
                  (     0         -1          0      )

 cart.    s(40) = ( -1.0000000  0.0000000  0.0000000 )
                  (  0.0000000  0.0000000  1.0000000 )
                  (  0.0000000 -1.0000000  0.0000000 )


      isym = 41     inv. 120 deg rotation - cart. axis [-1,-1,-1]

 cryst.   s(41) = (     0          0         -1      )    f =( -0.2500000 )
                  (    -1          0          0      )       ( -0.2500000 )
                  (     0         -1          0      )       ( -0.2500000 )

 cart.    s(41) = (  0.0000000 -1.0000000  0.0000000 )    f =( -0.3535534 )
                  (  0.0000000  0.0000000 -1.0000000 )       ( -0.3535534 )
                  ( -1.0000000  0.0000000  0.0000000 )       ( -0.3535534 )


      isym = 42     inv. 120 deg rotation - cart. axis [-1,1,1]  

 cryst.   s(42) = (    -1          1          0      )    f =( -0.2500000 )
                  (     0          1         -1      )       ( -0.2500000 )
                  (     0          1          0      )       ( -0.2500000 )

 cart.    s(42) = (  0.0000000  1.0000000  0.0000000 )    f =( -0.3535534 )
                  (  0.0000000  0.0000000 -1.0000000 )       ( -0.3535534 )
                  (  1.0000000  0.0000000  0.0000000 )       ( -0.3535534 )


      isym = 43     inv. 120 deg rotation - cart. axis [1,1,-1]  

 cryst.   s(43) = (     1         -1          0      )    f =( -0.2500000 )
                  (     1          0          0      )       ( -0.2500000 )
                  (     1          0         -1      )       ( -0.2500000 )

 cart.    s(43) = (  0.0000000 -1.0000000  0.0000000 )    f =( -0.3535534 )
                  (  0.0000000  0.0000000  1.0000000 )       ( -0.3535534 )
                  (  1.0000000  0.0000000  0.0000000 )       ( -0.3535534 )


      isym = 44     inv. 120 deg rotation - cart. axis [1,-1,1]  

 cryst.   s(44) = (     0          0          1      )    f =( -0.2500000 )
                  (     0         -1          1      )       ( -0.2500000 )
                  (    -1          0          1      )       ( -0.2500000 )

 cart.    s(44) = (  0.0000000  1.0000000  0.0000000 )    f =( -0.3535534 )
                  (  0.0000000  0.0000000  1.0000000 )       ( -0.3535534 )
                  ( -1.0000000  0.0000000  0.0000000 )       ( -0.3535534 )


      isym = 45     inv. 120 deg rotation - cart. axis [1,1,1]   

 cryst.   s(45) = (     0         -1          0      )    f =( -0.2500000 )
                  (     0          0         -1      )       ( -0.2500000 )
                  (    -1          0          0      )       ( -0.2500000 )

 cart.    s(45) = (  0.0000000  0.0000000 -1.0000000 )    f =( -0.3535534 )
                  ( -1.0000000  0.0000000  0.0000000 )       ( -0.3535534 )
                  (  0.0000000 -1.0000000  0.0000000 )       ( -0.3535534 )


      isym = 46     inv. 120 deg rotation - cart. axis [-1,1,-1] 

 cryst.   s(46) = (     1          0         -1      )    f =( -0.2500000 )
                  (     1         -1          0      )       ( -0.2500000 )
                  (     1          0          0      )       ( -0.2500000 )

 cart.    s(46) = (  0.0000000  0.0000000 -1.0000000 )    f =( -0.3535534 )
                  (  1.0000000  0.0000000  0.0000000 )       ( -0.3535534 )
                  (  0.0000000  1.0000000  0.0000000 )       ( -0.3535534 )


      isym = 47     inv. 120 deg rotation - cart. axis [1,-1,-1] 

 cryst.   s(47) = (    -1          0          1      )    f =( -0.2500000 )
                  (     0          0          1      )       ( -0.2500000 )
                  (     0         -1          1      )       ( -0.2500000 )

 cart.    s(47) = (  0.0000000  0.0000000  1.0000000 )    f =( -0.3535534 )
                  (  1.0000000  0.0000000  0.0000000 )       ( -0.3535534 )
                  (  0.0000000 -1.0000000  0.0000000 )       ( -0.3535534 )


      isym = 48     inv. 120 deg rotation - cart. axis [-1,-1,1] 

 cryst.   s(48) = (     0          1          0      )    f =( -0.2500000 )
                  (    -1          1          0      )       ( -0.2500000 )
                  (     0          1         -1      )       ( -0.2500000 )

 cart.    s(48) = (  0.0000000  0.0000000  1.0000000 )    f =( -0.3535534 )
                  ( -1.0000000  0.0000000  0.0000000 )       ( -0.3535534 )
                  (  0.0000000  1.0000000  0.0000000 )       ( -0.3535534 )


   Cartesian axes

     site n.     atom                  positions (alat units)
         1        Si     tau(   1) = (   0.3535534   0.3535534   1.0606602  )
         2        Si     tau(   2) = (   0.7071068   0.7071068   0.7071068  )

   Crystallographic axes

     site n.     atom                  positions (cryst. coord.)
         1        Si     tau(   1) = (  0.7500000  0.7500000 -0.2500000  )
         2        Si     tau(   2) = (  0.5000000  0.5000000  0.5000000  )

     number of k points=   202  Marzari-Vanderbilt smearing, width (Ry)=  0.0200
                       cart. coord. in units 2pi/alat
        k(    1) = (   0.0000000   0.0000000   0.0000000), wk =   0.0099010
        k(    2) = (   0.0000000   0.0157135   0.0000000), wk =   0.0099010
        k(    3) = (   0.0000000   0.0314270   0.0000000), wk =   0.0099010
        k(    4) = (   0.0000000   0.0471405   0.0000000), wk =   0.0099010
        k(    5) = (   0.0000000   0.0628539   0.0000000), wk =   0.0099010
        k(    6) = (   0.0000000   0.0785674   0.0000000), wk =   0.0099010
        k(    7) = (   0.0000000   0.0942809   0.0000000), wk =   0.0099010
        k(    8) = (   0.0000000   0.1099944   0.0000000), wk =   0.0099010
        k(    9) = (   0.0000000   0.1257079   0.0000000), wk =   0.0099010
        k(   10) = (   0.0000000   0.1414214   0.0000000), wk =   0.0099010
        k(   11) = (   0.0000000   0.1571348   0.0000000), wk =   0.0099010
        k(   12) = (   0.0000000   0.1728483   0.0000000), wk =   0.0099010
        k(   13) = (   0.0000000   0.1885618   0.0000000), wk =   0.0099010
        k(   14) = (   0.0000000   0.2042753   0.0000000), wk =   0.0099010
        k(   15) = (   0.0000000   0.2199888   0.0000000), wk =   0.0099010
        k(   16) = (   0.0000000   0.2357023   0.0000000), wk =   0.0099010
        k(   17) = (   0.0000000   0.2514157   0.0000000), wk =   0.0099010
        k(   18) = (   0.0000000   0.2671292   0.0000000), wk =   0.0099010
        k(   19) = (   0.0000000   0.2828427   0.0000000), wk =   0.0099010
        k(   20) = (   0.0000000   0.2985562   0.0000000), wk =   0.0099010
        k(   21) = (   0.0000000   0.3142697   0.0000000), wk =   0.0099010
        k(   22) = (   0.0000000   0.3299832   0.0000000), wk =   0.0099010
        k(   23) = (   0.0000000   0.3456966   0.0000000), wk =   0.0099010
        k(   24) = (   0.0000000   0.3614101   0.0000000), wk =   0.0099010
        k(   25) = (   0.0000000   0.3771236   0.0000000), wk =   0.0099010
        k(   26) = (   0.0000000   0.3928371   0.0000000), wk =   0.0099010
        k(   27) = (   0.0000000   0.4085506   0.0000000), wk =   0.0099010
        k(   28) = (   0.0000000   0.4242641   0.0000000), wk =   0.0099010
        k(   29) = (   0.0000000   0.4399776   0.0000000), wk =   0.0099010
        k(   30) = (   0.0000000   0.4556910   0.0000000), wk =   0.0099010
        k(   31) = (   0.0000000   0.4714045   0.0000000), wk =   0.0099010
        k(   32) = (   0.0000000   0.4871180   0.0000000), wk =   0.0099010
        k(   33) = (   0.0000000   0.5028315   0.0000000), wk =   0.0099010
        k(   34) = (   0.0000000   0.5185450   0.0000000), wk =   0.0099010
        k(   35) = (   0.0000000   0.5342585   0.0000000), wk =   0.0099010
        k(   36) = (   0.0000000   0.5499719   0.0000000), wk =   0.0099010
        k(   37) = (   0.0000000   0.5656854   0.0000000), wk =   0.0099010
        k(   38) = (   0.0000000   0.5813989   0.0000000), wk =   0.0099010
        k(   39) = (   0.0000000   0.5971124   0.0000000), wk =   0.0099010
        k(   40) = (   0.0000000   0.6128259   0.0000000), wk =   0.0099010
        k(   41) = (   0.0000000   0.6285394   0.0000000), wk =   0.0099010
        k(   42) = (   0.0000000   0.6442528   0.0000000), wk =   0.0099010
        k(   43) = (   0.0000000   0.6599663   0.0000000), wk =   0.0099010
        k(   44) = (   0.0000000   0.6756798   0.0000000), wk =   0.0099010
        k(   45) = (   0.0000000   0.6913933   0.0000000), wk =   0.0099010
        k(   46) = (   0.0000000   0.7071068   0.0000000), wk =   0.0099010
        k(   47) = (   0.0117851   0.7071068   0.0117851), wk =   0.0099010
        k(   48) = (   0.0235702   0.7071068   0.0235702), wk =   0.0099010
        k(   49) = (   0.0353553   0.7071068   0.0353553), wk =   0.0099010
        k(   50) = (   0.0471405   0.7071068   0.0471405), wk =   0.0099010
        k(   51) = (   0.0589256   0.7071068   0.0589256), wk =   0.0099010
        k(   52) = (   0.0707107   0.7071068   0.0707107), wk =   0.0099010
        k(   53) = (   0.0824958   0.7071068   0.0824958), wk =   0.0099010
        k(   54) = (   0.0942809   0.7071068   0.0942809), wk =   0.0099010
        k(   55) = (   0.1060660   0.7071068   0.1060660), wk =   0.0099010
        k(   56) = (   0.1178511   0.7071068   0.1178511), wk =   0.0099010
        k(   57) = (   0.1296362   0.7071068   0.1296362), wk =   0.0099010
        k(   58) = (   0.1414214   0.7071068   0.1414214), wk =   0.0099010
        k(   59) = (   0.1532065   0.7071068   0.1532065), wk =   0.0099010
        k(   60) = (   0.1649916   0.7071068   0.1649916), wk =   0.0099010
        k(   61) = (   0.1767767   0.7071068   0.1767767), wk =   0.0099010
        k(   62) = (   0.5303301   0.5303301   0.0000000), wk =   0.0099010
        k(   63) = (   0.5192815   0.5192815   0.0000000), wk =   0.0099010
        k(   64) = (   0.5082330   0.5082330   0.0000000), wk =   0.0099010
        k(   65) = (   0.4971845   0.4971845   0.0000000), wk =   0.0099010
        k(   66) = (   0.4861359   0.4861359   0.0000000), wk =   0.0099010
        k(   67) = (   0.4750874   0.4750874   0.0000000), wk =   0.0099010
        k(   68) = (   0.4640388   0.4640388   0.0000000), wk =   0.0099010
        k(   69) = (   0.4529903   0.4529903   0.0000000), wk =   0.0099010
        k(   70) = (   0.4419417   0.4419417   0.0000000), wk =   0.0099010
        k(   71) = (   0.4308932   0.4308932   0.0000000), wk =   0.0099010
        k(   72) = (   0.4198447   0.4198447   0.0000000), wk =   0.0099010
        k(   73) = (   0.4087961   0.4087961   0.0000000), wk =   0.0099010
        k(   74) = (   0.3977476   0.3977476   0.0000000), wk =   0.0099010
        k(   75) = (   0.3866990   0.3866990   0.0000000), wk =   0.0099010
        k(   76) = (   0.3756505   0.3756505   0.0000000), wk =   0.0099010
        k(   77) = (   0.3646019   0.3646019   0.0000000), wk =   0.0099010
        k(   78) = (   0.3535534   0.3535534   0.0000000), wk =   0.0099010
        k(   79) = (   0.3425048   0.3425048   0.0000000), wk =   0.0099010
        k(   80) = (   0.3314563   0.3314563   0.0000000), wk =   0.0099010
        k(   81) = (   0.3204078   0.3204078   0.0000000), wk =   0.0099010
        k(   82) = (   0.3093592   0.3093592   0.0000000), wk =   0.0099010
        k(   83) = (   0.2983107   0.2983107   0.0000000), wk =   0.0099010
        k(   84) = (   0.2872621   0.2872621   0.0000000), wk =   0.0099010
        k(   85) = (   0.2762136   0.2762136   0.0000000), wk =   0.0099010
        k(   86) = (   0.2651650   0.2651650   0.0000000), wk =   0.0099010
        k(   87) = (   0.2541165   0.2541165   0.0000000), wk =   0.0099010
        k(   88) = (   0.2430680   0.2430680   0.0000000), wk =   0.0099010
        k(   89) = (   0.2320194   0.2320194   0.0000000), wk =   0.0099010
        k(   90) = (   0.2209709   0.2209709   0.0000000), wk =   0.0099010
        k(   91) = (   0.2099223   0.2099223   0.0000000), wk =   0.0099010
        k(   92) = (   0.1988738   0.1988738   0.0000000), wk =   0.0099010
        k(   93) = (   0.1878252   0.1878252   0.0000000), wk =   0.0099010
        k(   94) = (   0.1767767   0.1767767   0.0000000), wk =   0.0099010
        k(   95) = (   0.1657282   0.1657282   0.0000000), wk =   0.0099010
        k(   96) = (   0.1546796   0.1546796   0.0000000), wk =   0.0099010
        k(   97) = (   0.1436311   0.1436311   0.0000000), wk =   0.0099010
        k(   98) = (   0.1325825   0.1325825   0.0000000), wk =   0.0099010
        k(   99) = (   0.1215340   0.1215340   0.0000000), wk =   0.0099010
        k(  100) = (   0.1104854   0.1104854   0.0000000), wk =   0.0099010
        k(  101) = (   0.0994369   0.0994369   0.0000000), wk =   0.0099010
        k(  102) = (   0.0883883   0.0883883   0.0000000), wk =   0.0099010
        k(  103) = (   0.0773398   0.0773398   0.0000000), wk =   0.0099010
        k(  104) = (   0.0662913   0.0662913   0.0000000), wk =   0.0099010
        k(  105) = (   0.0552427   0.0552427   0.0000000), wk =   0.0099010
        k(  106) = (   0.0441942   0.0441942   0.0000000), wk =   0.0099010
        k(  107) = (   0.0331456   0.0331456   0.0000000), wk =   0.0099010
        k(  108) = (   0.0220971   0.0220971   0.0000000), wk =   0.0099010
        k(  109) = (   0.0110485   0.0110485   0.0000000), wk =   0.0099010
        k(  110) = (   0.0000000   0.0000000   0.0000000), wk =   0.0099010
        k(  111) = (   0.0090655   0.0090655   0.0090655), wk =   0.0099010
        k(  112) = (   0.0181309   0.0181309   0.0181309), wk =   0.0099010
        k(  113) = (   0.0271964   0.0271964   0.0271964), wk =   0.0099010
        k(  114) = (   0.0362619   0.0362619   0.0362619), wk =   0.0099010
        k(  115) = (   0.0453274   0.0453274   0.0453274), wk =   0.0099010
        k(  116) = (   0.0543928   0.0543928   0.0543928), wk =   0.0099010
        k(  117) = (   0.0634583   0.0634583   0.0634583), wk =   0.0099010
        k(  118) = (   0.0725238   0.0725238   0.0725238), wk =   0.0099010
        k(  119) = (   0.0815892   0.0815892   0.0815892), wk =   0.0099010
        k(  120) = (   0.0906547   0.0906547   0.0906547), wk =   0.0099010
        k(  121) = (   0.0997202   0.0997202   0.0997202), wk =   0.0099010
        k(  122) = (   0.1087857   0.1087857   0.1087857), wk =   0.0099010
        k(  123) = (   0.1178511   0.1178511   0.1178511), wk =   0.0099010
        k(  124) = (   0.1269166   0.1269166   0.1269166), wk =   0.0099010
        k(  125) = (   0.1359821   0.1359821   0.1359821), wk =   0.0099010
        k(  126) = (   0.1450475   0.1450475   0.1450475), wk =   0.0099010
        k(  127) = (   0.1541130   0.1541130   0.1541130), wk =   0.0099010
        k(  128) = (   0.1631785   0.1631785   0.1631785), wk =   0.0099010
        k(  129) = (   0.1722440   0.1722440   0.1722440), wk =   0.0099010
        k(  130) = (   0.1813094   0.1813094   0.1813094), wk =   0.0099010
        k(  131) = (   0.1903749   0.1903749   0.1903749), wk =   0.0099010
        k(  132) = (   0.1994404   0.1994404   0.1994404), wk =   0.0099010
        k(  133) = (   0.2085058   0.2085058   0.2085058), wk =   0.0099010
        k(  134) = (   0.2175713   0.2175713   0.2175713), wk =   0.0099010
        k(  135) = (   0.2266368   0.2266368   0.2266368), wk =   0.0099010
        k(  136) = (   0.2357023   0.2357023   0.2357023), wk =   0.0099010
        k(  137) = (   0.2447677   0.2447677   0.2447677), wk =   0.0099010
        k(  138) = (   0.2538332   0.2538332   0.2538332), wk =   0.0099010
        k(  139) = (   0.2628987   0.2628987   0.2628987), wk =   0.0099010
        k(  140) = (   0.2719641   0.2719641   0.2719641), wk =   0.0099010
        k(  141) = (   0.2810296   0.2810296   0.2810296), wk =   0.0099010
        k(  142) = (   0.2900951   0.2900951   0.2900951), wk =   0.0099010
        k(  143) = (   0.2991606   0.2991606   0.2991606), wk =   0.0099010
        k(  144) = (   0.3082260   0.3082260   0.3082260), wk =   0.0099010
        k(  145) = (   0.3172915   0.3172915   0.3172915), wk =   0.0099010
        k(  146) = (   0.3263570   0.3263570   0.3263570), wk =   0.0099010
        k(  147) = (   0.3354224   0.3354224   0.3354224), wk =   0.0099010
        k(  148) = (   0.3444879   0.3444879   0.3444879), wk =   0.0099010
        k(  149) = (   0.3535534   0.3535534   0.3535534), wk =   0.0099010
        k(  150) = (   0.3535534   0.3649583   0.3421484), wk =   0.0099010
        k(  151) = (   0.3535534   0.3763633   0.3307435), wk =   0.0099010
        k(  152) = (   0.3535534   0.3877682   0.3193385), wk =   0.0099010
        k(  153) = (   0.3535534   0.3991732   0.3079336), wk =   0.0099010
        k(  154) = (   0.3535534   0.4105781   0.2965287), wk =   0.0099010
        k(  155) = (   0.3535534   0.4219831   0.2851237), wk =   0.0099010
        k(  156) = (   0.3535534   0.4333880   0.2737188), wk =   0.0099010
        k(  157) = (   0.3535534   0.4447930   0.2623138), wk =   0.0099010
        k(  158) = (   0.3535534   0.4561979   0.2509089), wk =   0.0099010
        k(  159) = (   0.3535534   0.4676029   0.2395039), wk =   0.0099010
        k(  160) = (   0.3535534   0.4790078   0.2280990), wk =   0.0099010
        k(  161) = (   0.3535534   0.4904128   0.2166940), wk =   0.0099010
        k(  162) = (   0.3535534   0.5018177   0.2052891), wk =   0.0099010
        k(  163) = (   0.3535534   0.5132227   0.1938841), wk =   0.0099010
        k(  164) = (   0.3535534   0.5246276   0.1824792), wk =   0.0099010
        k(  165) = (   0.3535534   0.5360326   0.1710742), wk =   0.0099010
        k(  166) = (   0.3535534   0.5474375   0.1596693), wk =   0.0099010
        k(  167) = (   0.3535534   0.5588425   0.1482643), wk =   0.0099010
        k(  168) = (   0.3535534   0.5702474   0.1368594), wk =   0.0099010
        k(  169) = (   0.3535534   0.5816524   0.1254544), wk =   0.0099010
        k(  170) = (   0.3535534   0.5930573   0.1140495), wk =   0.0099010
        k(  171) = (   0.3535534   0.6044622   0.1026445), wk =   0.0099010
        k(  172) = (   0.3535534   0.6158672   0.0912396), wk =   0.0099010
        k(  173) = (   0.3535534   0.6272721   0.0798346), wk =   0.0099010
        k(  174) = (   0.3535534   0.6386771   0.0684297), wk =   0.0099010
        k(  175) = (   0.3535534   0.6500820   0.0570247), wk =   0.0099010
        k(  176) = (   0.3535534   0.6614870   0.0456198), wk =   0.0099010
        k(  177) = (   0.3535534   0.6728919   0.0342148), wk =   0.0099010
        k(  178) = (   0.3535534   0.6842969   0.0228099), wk =   0.0099010
        k(  179) = (   0.3535534   0.6957018   0.0114049), wk =   0.0099010
        k(  180) = (   0.3535534   0.7071068   0.0000000), wk =   0.0099010
        k(  181) = (   0.3374828   0.7071068   0.0000000), wk =   0.0099010
        k(  182) = (   0.3214122   0.7071068   0.0000000), wk =   0.0099010
        k(  183) = (   0.3053416   0.7071068  -0.0000000), wk =   0.0099010
        k(  184) = (   0.2892710   0.7071068   0.0000000), wk =   0.0099010
        k(  185) = (   0.2732003   0.7071068  -0.0000000), wk =   0.0099010
        k(  186) = (   0.2571297   0.7071068   0.0000000), wk =   0.0099010
        k(  187) = (   0.2410591   0.7071068  -0.0000000), wk =   0.0099010
        k(  188) = (   0.2249885   0.7071068  -0.0000000), wk =   0.0099010
        k(  189) = (   0.2089179   0.7071068   0.0000000), wk =   0.0099010
        k(  190) = (   0.1928473   0.7071068   0.0000000), wk =   0.0099010
        k(  191) = (   0.1767767   0.7071068   0.0000000), wk =   0.0099010
        k(  192) = (   0.1607061   0.7071068   0.0000000), wk =   0.0099010
        k(  193) = (   0.1446355   0.7071068   0.0000000), wk =   0.0099010
        k(  194) = (   0.1285649   0.7071068   0.0000000), wk =   0.0099010
        k(  195) = (   0.1124943   0.7071068   0.0000000), wk =   0.0099010
        k(  196) = (   0.0964237   0.7071068  -0.0000000), wk =   0.0099010
        k(  197) = (   0.0803530   0.7071068   0.0000000), wk =   0.0099010
        k(  198) = (   0.0642824   0.7071068   0.0000000), wk =   0.0099010
        k(  199) = (   0.0482118   0.7071068   0.0000000), wk =   0.0099010
        k(  200) = (   0.0321412   0.7071068   0.0000000), wk =   0.0099010
        k(  201) = (   0.0160706   0.7071068  -0.0000000), wk =   0.0099010
        k(  202) = (   0.0000000   0.7071068   0.0000000), wk =   0.0099010

                       cryst. coord.
        k(    1) = (   0.0000000   0.0000000   0.0000000), wk =   0.0099010
        k(    2) = (   0.0111111   0.0000000   0.0111111), wk =   0.0099010
        k(    3) = (   0.0222222   0.0000000   0.0222222), wk =   0.0099010
        k(    4) = (   0.0333333   0.0000000   0.0333333), wk =   0.0099010
        k(    5) = (   0.0444444   0.0000000   0.0444444), wk =   0.0099010
        k(    6) = (   0.0555556   0.0000000   0.0555556), wk =   0.0099010
        k(    7) = (   0.0666667   0.0000000   0.0666667), wk =   0.0099010
        k(    8) = (   0.0777778   0.0000000   0.0777778), wk =   0.0099010
        k(    9) = (   0.0888889   0.0000000   0.0888889), wk =   0.0099010
        k(   10) = (   0.1000000   0.0000000   0.1000000), wk =   0.0099010
        k(   11) = (   0.1111111   0.0000000   0.1111111), wk =   0.0099010
        k(   12) = (   0.1222222   0.0000000   0.1222222), wk =   0.0099010
        k(   13) = (   0.1333333   0.0000000   0.1333333), wk =   0.0099010
        k(   14) = (   0.1444444   0.0000000   0.1444444), wk =   0.0099010
        k(   15) = (   0.1555556   0.0000000   0.1555556), wk =   0.0099010
        k(   16) = (   0.1666667   0.0000000   0.1666667), wk =   0.0099010
        k(   17) = (   0.1777778   0.0000000   0.1777778), wk =   0.0099010
        k(   18) = (   0.1888889   0.0000000   0.1888889), wk =   0.0099010
        k(   19) = (   0.2000000   0.0000000   0.2000000), wk =   0.0099010
        k(   20) = (   0.2111111   0.0000000   0.2111111), wk =   0.0099010
        k(   21) = (   0.2222222   0.0000000   0.2222222), wk =   0.0099010
        k(   22) = (   0.2333333   0.0000000   0.2333333), wk =   0.0099010
        k(   23) = (   0.2444444   0.0000000   0.2444444), wk =   0.0099010
        k(   24) = (   0.2555556   0.0000000   0.2555556), wk =   0.0099010
        k(   25) = (   0.2666667   0.0000000   0.2666667), wk =   0.0099010
        k(   26) = (   0.2777778   0.0000000   0.2777778), wk =   0.0099010
        k(   27) = (   0.2888889   0.0000000   0.2888889), wk =   0.0099010
        k(   28) = (   0.3000000   0.0000000   0.3000000), wk =   0.0099010
        k(   29) = (   0.3111111   0.0000000   0.3111111), wk =   0.0099010
        k(   30) = (   0.3222222   0.0000000   0.3222222), wk =   0.0099010
        k(   31) = (   0.3333333   0.0000000   0.3333333), wk =   0.0099010
        k(   32) = (   0.3444444   0.0000000   0.3444444), wk =   0.0099010
        k(   33) = (   0.3555556   0.0000000   0.3555556), wk =   0.0099010
        k(   34) = (   0.3666667   0.0000000   0.3666667), wk =   0.0099010
        k(   35) = (   0.3777778   0.0000000   0.3777778), wk =   0.0099010
        k(   36) = (   0.3888889   0.0000000   0.3888889), wk =   0.0099010
        k(   37) = (   0.4000000   0.0000000   0.4000000), wk =   0.0099010
        k(   38) = (   0.4111111   0.0000000   0.4111111), wk =   0.0099010
        k(   39) = (   0.4222222   0.0000000   0.4222222), wk =   0.0099010
        k(   40) = (   0.4333333   0.0000000   0.4333333), wk =   0.0099010
        k(   41) = (   0.4444444   0.0000000   0.4444444), wk =   0.0099010
        k(   42) = (   0.4555556   0.0000000   0.4555556), wk =   0.0099010
        k(   43) = (   0.4666667   0.0000000   0.4666667), wk =   0.0099010
        k(   44) = (   0.4777778   0.0000000   0.4777778), wk =   0.0099010
        k(   45) = (   0.4888889   0.0000000   0.4888889), wk =   0.0099010
        k(   46) = (   0.5000000   0.0000000   0.5000000), wk =   0.0099010
        k(   47) = (   0.5083333   0.0166667   0.5083333), wk =   0.0099010
        k(   48) = (   0.5166667   0.0333333   0.5166667), wk =   0.0099010
        k(   49) = (   0.5250000   0.0500000   0.5250000), wk =   0.0099010
        k(   50) = (   0.5333333   0.0666667   0.5333333), wk =   0.0099010
        k(   51) = (   0.5416667   0.0833333   0.5416667), wk =   0.0099010
        k(   52) = (   0.5500000   0.1000000   0.5500000), wk =   0.0099010
        k(   53) = (   0.5583333   0.1166667   0.5583333), wk =   0.0099010
        k(   54) = (   0.5666667   0.1333333   0.5666667), wk =   0.0099010
        k(   55) = (   0.5750000   0.1500000   0.5750000), wk =   0.0099010
        k(   56) = (   0.5833333   0.1666667   0.5833333), wk =   0.0099010
        k(   57) = (   0.5916667   0.1833333   0.5916667), wk =   0.0099010
        k(   58) = (   0.6000000   0.2000000   0.6000000), wk =   0.0099010
        k(   59) = (   0.6083333   0.2166667   0.6083333), wk =   0.0099010
        k(   60) = (   0.6166667   0.2333333   0.6166667), wk =   0.0099010
        k(   61) = (   0.6250000   0.2500000   0.6250000), wk =   0.0099010
        k(   62) = (   0.3750000   0.3750000   0.7500000), wk =   0.0099010
        k(   63) = (   0.3671875   0.3671875   0.7343750), wk =   0.0099010
        k(   64) = (   0.3593750   0.3593750   0.7187500), wk =   0.0099010
        k(   65) = (   0.3515625   0.3515625   0.7031250), wk =   0.0099010
        k(   66) = (   0.3437500   0.3437500   0.6875000), wk =   0.0099010
        k(   67) = (   0.3359375   0.3359375   0.6718750), wk =   0.0099010
        k(   68) = (   0.3281250   0.3281250   0.6562500), wk =   0.0099010
        k(   69) = (   0.3203125   0.3203125   0.6406250), wk =   0.0099010
        k(   70) = (   0.3125000   0.3125000   0.6250000), wk =   0.0099010
        k(   71) = (   0.3046875   0.3046875   0.6093750), wk =   0.0099010
        k(   72) = (   0.2968750   0.2968750   0.5937500), wk =   0.0099010
        k(   73) = (   0.2890625   0.2890625   0.5781250), wk =   0.0099010
        k(   74) = (   0.2812500   0.2812500   0.5625000), wk =   0.0099010
        k(   75) = (   0.2734375   0.2734375   0.5468750), wk =   0.0099010
        k(   76) = (   0.2656250   0.2656250   0.5312500), wk =   0.0099010
        k(   77) = (   0.2578125   0.2578125   0.5156250), wk =   0.0099010
        k(   78) = (   0.2500000   0.2500000   0.5000000), wk =   0.0099010
        k(   79) = (   0.2421875   0.2421875   0.4843750), wk =   0.0099010
        k(   80) = (   0.2343750   0.2343750   0.4687500), wk =   0.0099010
        k(   81) = (   0.2265625   0.2265625   0.4531250), wk =   0.0099010
        k(   82) = (   0.2187500   0.2187500   0.4375000), wk =   0.0099010
        k(   83) = (   0.2109375   0.2109375   0.4218750), wk =   0.0099010
        k(   84) = (   0.2031250   0.2031250   0.4062500), wk =   0.0099010
        k(   85) = (   0.1953125   0.1953125   0.3906250), wk =   0.0099010
        k(   86) = (   0.1875000   0.1875000   0.3750000), wk =   0.0099010
        k(   87) = (   0.1796875   0.1796875   0.3593750), wk =   0.0099010
        k(   88) = (   0.1718750   0.1718750   0.3437500), wk =   0.0099010
        k(   89) = (   0.1640625   0.1640625   0.3281250), wk =   0.0099010
        k(   90) = (   0.1562500   0.1562500   0.3125000), wk =   0.0099010
        k(   91) = (   0.1484375   0.1484375   0.2968750), wk =   0.0099010
        k(   92) = (   0.1406250   0.1406250   0.2812500), wk =   0.0099010
        k(   93) = (   0.1328125   0.1328125   0.2656250), wk =   0.0099010
        k(   94) = (   0.1250000   0.1250000   0.2500000), wk =   0.0099010
        k(   95) = (   0.1171875   0.1171875   0.2343750), wk =   0.0099010
        k(   96) = (   0.1093750   0.1093750   0.2187500), wk =   0.0099010
        k(   97) = (   0.1015625   0.1015625   0.2031250), wk =   0.0099010
        k(   98) = (   0.0937500   0.0937500   0.1875000), wk =   0.0099010
        k(   99) = (   0.0859375   0.0859375   0.1718750), wk =   0.0099010
        k(  100) = (   0.0781250   0.0781250   0.1562500), wk =   0.0099010
        k(  101) = (   0.0703125   0.0703125   0.1406250), wk =   0.0099010
        k(  102) = (   0.0625000   0.0625000   0.1250000), wk =   0.0099010
        k(  103) = (   0.0546875   0.0546875   0.1093750), wk =   0.0099010
        k(  104) = (   0.0468750   0.0468750   0.0937500), wk =   0.0099010
        k(  105) = (   0.0390625   0.0390625   0.0781250), wk =   0.0099010
        k(  106) = (   0.0312500   0.0312500   0.0625000), wk =   0.0099010
        k(  107) = (   0.0234375   0.0234375   0.0468750), wk =   0.0099010
        k(  108) = (   0.0156250   0.0156250   0.0312500), wk =   0.0099010
        k(  109) = (   0.0078125   0.0078125   0.0156250), wk =   0.0099010
        k(  110) = (   0.0000000   0.0000000   0.0000000), wk =   0.0099010
        k(  111) = (   0.0128205   0.0128205   0.0128205), wk =   0.0099010
        k(  112) = (   0.0256410   0.0256410   0.0256410), wk =   0.0099010
        k(  113) = (   0.0384615   0.0384615   0.0384615), wk =   0.0099010
        k(  114) = (   0.0512821   0.0512821   0.0512821), wk =   0.0099010
        k(  115) = (   0.0641026   0.0641026   0.0641026), wk =   0.0099010
        k(  116) = (   0.0769231   0.0769231   0.0769231), wk =   0.0099010
        k(  117) = (   0.0897436   0.0897436   0.0897436), wk =   0.0099010
        k(  118) = (   0.1025641   0.1025641   0.1025641), wk =   0.0099010
        k(  119) = (   0.1153846   0.1153846   0.1153846), wk =   0.0099010
        k(  120) = (   0.1282051   0.1282051   0.1282051), wk =   0.0099010
        k(  121) = (   0.1410256   0.1410256   0.1410256), wk =   0.0099010
        k(  122) = (   0.1538462   0.1538462   0.1538462), wk =   0.0099010
        k(  123) = (   0.1666667   0.1666667   0.1666667), wk =   0.0099010
        k(  124) = (   0.1794872   0.1794872   0.1794872), wk =   0.0099010
        k(  125) = (   0.1923077   0.1923077   0.1923077), wk =   0.0099010
        k(  126) = (   0.2051282   0.2051282   0.2051282), wk =   0.0099010
        k(  127) = (   0.2179487   0.2179487   0.2179487), wk =   0.0099010
        k(  128) = (   0.2307692   0.2307692   0.2307692), wk =   0.0099010
        k(  129) = (   0.2435897   0.2435897   0.2435897), wk =   0.0099010
        k(  130) = (   0.2564103   0.2564103   0.2564103), wk =   0.0099010
        k(  131) = (   0.2692308   0.2692308   0.2692308), wk =   0.0099010
        k(  132) = (   0.2820513   0.2820513   0.2820513), wk =   0.0099010
        k(  133) = (   0.2948718   0.2948718   0.2948718), wk =   0.0099010
        k(  134) = (   0.3076923   0.3076923   0.3076923), wk =   0.0099010
        k(  135) = (   0.3205128   0.3205128   0.3205128), wk =   0.0099010
        k(  136) = (   0.3333333   0.3333333   0.3333333), wk =   0.0099010
        k(  137) = (   0.3461538   0.3461538   0.3461538), wk =   0.0099010
        k(  138) = (   0.3589744   0.3589744   0.3589744), wk =   0.0099010
        k(  139) = (   0.3717949   0.3717949   0.3717949), wk =   0.0099010
        k(  140) = (   0.3846154   0.3846154   0.3846154), wk =   0.0099010
        k(  141) = (   0.3974359   0.3974359   0.3974359), wk =   0.0099010
        k(  142) = (   0.4102564   0.4102564   0.4102564), wk =   0.0099010
        k(  143) = (   0.4230769   0.4230769   0.4230769), wk =   0.0099010
        k(  144) = (   0.4358974   0.4358974   0.4358974), wk =   0.0099010
        k(  145) = (   0.4487179   0.4487179   0.4487179), wk =   0.0099010
        k(  146) = (   0.4615385   0.4615385   0.4615385), wk =   0.0099010
        k(  147) = (   0.4743590   0.4743590   0.4743590), wk =   0.0099010
        k(  148) = (   0.4871795   0.4871795   0.4871795), wk =   0.0099010
        k(  149) = (   0.5000000   0.5000000   0.5000000), wk =   0.0099010
        k(  150) = (   0.5000000   0.4919355   0.5080645), wk =   0.0099010
        k(  151) = (   0.5000000   0.4838710   0.5161290), wk =   0.0099010
        k(  152) = (   0.5000000   0.4758065   0.5241935), wk =   0.0099010
        k(  153) = (   0.5000000   0.4677419   0.5322581), wk =   0.0099010
        k(  154) = (   0.5000000   0.4596774   0.5403226), wk =   0.0099010
        k(  155) = (   0.5000000   0.4516129   0.5483871), wk =   0.0099010
        k(  156) = (   0.5000000   0.4435484   0.5564516), wk =   0.0099010
        k(  157) = (   0.5000000   0.4354839   0.5645161), wk =   0.0099010
        k(  158) = (   0.5000000   0.4274194   0.5725806), wk =   0.0099010
        k(  159) = (   0.5000000   0.4193548   0.5806452), wk =   0.0099010
        k(  160) = (   0.5000000   0.4112903   0.5887097), wk =   0.0099010
        k(  161) = (   0.5000000   0.4032258   0.5967742), wk =   0.0099010
        k(  162) = (   0.5000000   0.3951613   0.6048387), wk =   0.0099010
        k(  163) = (   0.5000000   0.3870968   0.6129032), wk =   0.0099010
        k(  164) = (   0.5000000   0.3790323   0.6209677), wk =   0.0099010
        k(  165) = (   0.5000000   0.3709677   0.6290323), wk =   0.0099010
        k(  166) = (   0.5000000   0.3629032   0.6370968), wk =   0.0099010
        k(  167) = (   0.5000000   0.3548387   0.6451613), wk =   0.0099010
        k(  168) = (   0.5000000   0.3467742   0.6532258), wk =   0.0099010
        k(  169) = (   0.5000000   0.3387097   0.6612903), wk =   0.0099010
        k(  170) = (   0.5000000   0.3306452   0.6693548), wk =   0.0099010
        k(  171) = (   0.5000000   0.3225806   0.6774194), wk =   0.0099010
        k(  172) = (   0.5000000   0.3145161   0.6854839), wk =   0.0099010
        k(  173) = (   0.5000000   0.3064516   0.6935484), wk =   0.0099010
        k(  174) = (   0.5000000   0.2983871   0.7016129), wk =   0.0099010
        k(  175) = (   0.5000000   0.2903226   0.7096774), wk =   0.0099010
        k(  176) = (   0.5000000   0.2822581   0.7177419), wk =   0.0099010
        k(  177) = (   0.5000000   0.2741935   0.7258065), wk =   0.0099010
        k(  178) = (   0.5000000   0.2661290   0.7338710), wk =   0.0099010
        k(  179) = (   0.5000000   0.2580645   0.7419355), wk =   0.0099010
        k(  180) = (   0.5000000   0.2500000   0.7500000), wk =   0.0099010
        k(  181) = (   0.5000000   0.2386364   0.7386364), wk =   0.0099010
        k(  182) = (   0.5000000   0.2272727   0.7272727), wk =   0.0099010
        k(  183) = (   0.5000000   0.2159091   0.7159091), wk =   0.0099010
        k(  184) = (   0.5000000   0.2045455   0.7045455), wk =   0.0099010
        k(  185) = (   0.5000000   0.1931818   0.6931818), wk =   0.0099010
        k(  186) = (   0.5000000   0.1818182   0.6818182), wk =   0.0099010
        k(  187) = (   0.5000000   0.1704545   0.6704545), wk =   0.0099010
        k(  188) = (   0.5000000   0.1590909   0.6590909), wk =   0.0099010
        k(  189) = (   0.5000000   0.1477273   0.6477273), wk =   0.0099010
        k(  190) = (   0.5000000   0.1363636   0.6363636), wk =   0.0099010
        k(  191) = (   0.5000000   0.1250000   0.6250000), wk =   0.0099010
        k(  192) = (   0.5000000   0.1136364   0.6136364), wk =   0.0099010
        k(  193) = (   0.5000000   0.1022727   0.6022727), wk =   0.0099010
        k(  194) = (   0.5000000   0.0909091   0.5909091), wk =   0.0099010
        k(  195) = (   0.5000000   0.0795455   0.5795455), wk =   0.0099010
        k(  196) = (   0.5000000   0.0681818   0.5681818), wk =   0.0099010
        k(  197) = (   0.5000000   0.0568182   0.5568182), wk =   0.0099010
        k(  198) = (   0.5000000   0.0454545   0.5454545), wk =   0.0099010
        k(  199) = (   0.5000000   0.0340909   0.5340909), wk =   0.0099010
        k(  200) = (   0.5000000   0.0227273   0.5227273), wk =   0.0099010
        k(  201) = (   0.5000000   0.0113636   0.5113636), wk =   0.0099010
        k(  202) = (   0.5000000   0.0000000   0.5000000), wk =   0.0099010

     Dense  grid:     6615 G-vectors     FFT dimensions: (  32,  32,  32)

     Dynamical RAM for                 wfc:       0.39 MB

     Dynamical RAM for     wfc (w. buffer):      78.80 MB

     Dynamical RAM for           str. fact:       0.10 MB

     Dynamical RAM for           local pot:       0.00 MB

     Dynamical RAM for          nlocal pot:       1.16 MB

     Dynamical RAM for                qrad:       0.91 MB

     Dynamical RAM for          rho,v,vnew:       1.05 MB

     Dynamical RAM for               rhoin:       0.35 MB

     Dynamical RAM for            rho*nmix:       1.61 MB

     Dynamical RAM for           G-vectors:       0.43 MB

     Dynamical RAM for          h,s,v(r/c):       0.01 MB

     Dynamical RAM for          <psi|beta>:       0.01 MB

     Dynamical RAM for      wfcinit/wfcrot:       0.78 MB

     Estimated static dynamical RAM per process >      84.26 MB

     Estimated max dynamical RAM per process >      86.66 MB

     The initial density is read from file :
     ./out/aiida.save/charge-density


     starting charge       8.0038, renormalised to       8.0000
     Starting wfcs are    8 randomized atomic wfcs +    4 random wfcs

     total cpu time spent up to now is        1.1 secs

     Self-consistent Calculation

     iteration #  1     ecut=    60.00 Ry     beta= 0.40
     ParO style diagonalization

---- Real-time Memory Report at c_bands before calling an iterative solver
           194 MiB given to the printing process from OS
             0 MiB allocation reported by mallinfo(arena+hblkhd)
        115057 MiB available memory on the node where the printing process lives
------------------
     ethr =  1.00E-05,  avg # of iterations = 15.1

     total cpu time spent up to now is       16.3 secs

     total energy              =     -16.82588323 Ry
     estimated scf accuracy    <       0.00488201 Ry

     iteration #  2     ecut=    60.00 Ry     beta= 0.40
     ParO style diagonalization

---- Real-time Memory Report at c_bands before calling an iterative solver
           199 MiB given to the printing process from OS
             0 MiB allocation reported by mallinfo(arena+hblkhd)
        115002 MiB available memory on the node where the printing process lives
------------------
     ethr =  6.10E-05,  avg # of iterations =  2.7

     total cpu time spent up to now is       19.6 secs

     total energy              =     -16.82558198 Ry
     estimated scf accuracy    <       0.00105788 Ry

     iteration #  3     ecut=    60.00 Ry     beta= 0.40
     ParO style diagonalization

---- Real-time Memory Report at c_bands before calling an iterative solver
           199 MiB given to the printing process from OS
             0 MiB allocation reported by mallinfo(arena+hblkhd)
        114981 MiB available memory on the node where the printing process lives
------------------
     ethr =  1.32E-05,  avg # of iterations =  3.8

     total cpu time spent up to now is       23.9 secs

     total energy              =     -16.82568718 Ry
     estimated scf accuracy    <       0.00001155 Ry

     iteration #  4     ecut=    60.00 Ry     beta= 0.40
     ParO style diagonalization

---- Real-time Memory Report at c_bands before calling an iterative solver
           200 MiB given to the printing process from OS
             0 MiB allocation reported by mallinfo(arena+hblkhd)
        115020 MiB available memory on the node where the printing process lives
------------------
     ethr =  1.44E-07,  avg # of iterations =  4.8

     total cpu time spent up to now is       29.1 secs

     total energy              =     -16.82568800 Ry
     estimated scf accuracy    <       0.00000088 Ry

     iteration #  5     ecut=    60.00 Ry     beta= 0.40
     ParO style diagonalization

---- Real-time Memory Report at c_bands before calling an iterative solver
           200 MiB given to the printing process from OS
             0 MiB allocation reported by mallinfo(arena+hblkhd)
        115004 MiB available memory on the node where the printing process lives
------------------
     ethr =  1.10E-08,  avg # of iterations =  4.9

     total cpu time spent up to now is       34.8 secs

     total energy              =     -16.82568814 Ry
     estimated scf accuracy    <       0.00000006 Ry

     iteration #  6     ecut=    60.00 Ry     beta= 0.40
     ParO style diagonalization

---- Real-time Memory Report at c_bands before calling an iterative solver
           200 MiB given to the printing process from OS
             0 MiB allocation reported by mallinfo(arena+hblkhd)
        115003 MiB available memory on the node where the printing process lives
------------------
     ethr =  7.75E-10,  avg # of iterations =  4.2

     total cpu time spent up to now is       39.5 secs

     End of self-consistent calculation

          k = 0.0000 0.0000 0.0000 (  2109 PWs)   bands (ev):

    -5.7928   6.2215   6.2215   6.2215   8.6692   8.6692   8.6692   9.3827
    13.7345  13.8836  13.8836  17.1771

     occupation numbers 
     1.0000   0.8350   0.8350   0.8350   0.0000   0.0000   0.0000   0.0000
     0.0000   0.0000   0.0000   0.0000

          k = 0.0000 0.0157 0.0000 (  2101 PWs)   bands (ev):

    -5.7906   6.2059   6.2115   6.2115   8.6633   8.6818   8.6818   9.3980
    13.7446  13.8638  13.8860  17.1809

     occupation numbers 
     1.0000   0.8706   0.8580   0.8580   0.0000   0.0000   0.0000   0.0000
     0.0000   0.0000   0.0000   0.0000

          k = 0.0000 0.0314 0.0000 (  2101 PWs)   bands (ev):

    -5.7841   6.1600   6.1822   6.1822   8.6459   8.7189   8.7189   9.4428
    13.7747  13.8062  13.8931  17.1923

     occupation numbers 
     1.0000   0.9606   0.9200   0.9200   0.0000   0.0000   0.0000   0.0000
     0.0000   0.0000   0.0000   0.0000

          k = 0.0000 0.0471 0.0000 (  2101 PWs)   bands (ev):

    -5.7732   6.0864   6.1354   6.1354   8.6173   8.7789   8.7789   9.5143
    13.7149  13.8245  13.9051  17.2114

     occupation numbers 
     1.0000   1.0521   0.9987   0.9987   0.0000   0.0000   0.0000   0.0000
     0.0000   0.0000   0.0000   0.0000

          k = 0.0000 0.0629 0.0000 (  2101 PWs)   bands (ev):

    -5.7580   5.9887   6.0733   6.0733   8.5783   8.8593   8.8593   9.6082
    13.5960  13.8931  13.9218  17.2381

     occupation numbers 
     1.0000   1.0829   1.0616   1.0616   0.0000   0.0000   0.0000   0.0000
     0.0000   0.0000   0.0000   0.0000

          k = 0.0000 0.0786 0.0000 (  2101 PWs)   bands (ev):

    -5.7385   5.8706   5.9988   5.9988   8.5299   8.9574   8.9574   9.7196
    13.4563  13.9433  13.9797  17.2724

     occupation numbers 
     1.0000   1.0512   1.0833   1.0833   0.0000   0.0000   0.0000   0.0000
     0.0000   0.0000   0.0000   0.0000

          k = 0.0000 0.0943 0.0000 (  2101 PWs)   bands (ev):

    -5.7147   5.7360   5.9144   5.9144   8.4730   9.0706   9.0706   9.8433
    13.3030  13.9696  14.0830  17.3142

     occupation numbers 
     1.0000   1.0150   1.0661   1.0661   0.0000   0.0000   0.0000   0.0000
     0.0000   0.0000   0.0000   0.0000

          k = 0.0000 0.1100 0.0000 (  2101 PWs)   bands (ev):

    -5.6865   5.5879   5.8225   5.8225   8.4088   9.1964   9.1964   9.9735
    13.1432  14.0007  14.2021  17.3637

     occupation numbers 
     1.0000   1.0020   1.0355   1.0355   0.0000   0.0000   0.0000   0.0000
     0.0000   0.0000   0.0000   0.0000

          k = 0.0000 0.1257 0.0000 (  2117 PWs)   bands (ev):

    -5.6540   5.4293   5.7251   5.7251   8.3384   9.3328   9.3328  10.1042
    12.9844  14.0365  14.3355  17.4206

     occupation numbers 
     1.0000   1.0001   1.0133   1.0133   0.0000   0.0000   0.0000   0.0000
     0.0000   0.0000   0.0000   0.0000

          k = 0.0000 0.1414 0.0000 (  2121 PWs)   bands (ev):

    -5.6172   5.2621   5.6239   5.6239   8.2630   9.4781   9.4781  10.2283
    12.8347  14.0771  14.4823  17.4851

     occupation numbers 
     1.0000   1.0000   1.0035   1.0035   0.0000   0.0000   0.0000   0.0000
     0.0000   0.0000   0.0000   0.0000

          k = 0.0000 0.1571 0.0000 (  2121 PWs)   bands (ev):

    -5.5761   5.0883   5.5202   5.5202   8.1836   9.6310   9.6310  10.3370
    12.7040  14.1225  14.6411  17.5570

     occupation numbers 
     1.0000   1.0000   1.0007   1.0007   0.0000   0.0000   0.0000   0.0000
     0.0000   0.0000   0.0000   0.0000

          k = 0.0000 0.1728 0.0000 (  2105 PWs)   bands (ev):

    -5.5307   4.9091   5.4151   5.4151   8.1011   9.7903   9.7903  10.4199
    12.6032  14.1726  14.8111  17.6362

     occupation numbers 
     1.0000   1.0000   1.0001   1.0001   0.0000   0.0000   0.0000   0.0000
     0.0000   0.0000   0.0000   0.0000

          k = 0.0000 0.1886 0.0000 (  2117 PWs)   bands (ev):

    -5.4811   4.7256   5.3095   5.3095   8.0165   9.9550   9.9550  10.4660
    12.5440  14.2275  14.9910  17.7227

     occupation numbers 
     1.0000   1.0000   1.0000   1.0000   0.0000   0.0000   0.0000   0.0000
     0.0000   0.0000   0.0000   0.0000

          k = 0.0000 0.2043 0.0000 (  2109 PWs)   bands (ev):

    -5.4271   4.5387   5.2040   5.2040   7.9307  10.1245  10.1245  10.4669
    12.5353  14.2872  15.1801  17.8162

     occupation numbers 
     1.0000   1.0000   1.0000   1.0000   0.0000   0.0000   0.0000   0.0000
     0.0000   0.0000   0.0000   0.0000

          k = 0.0000 0.2200 0.0000 (  2109 PWs)   bands (ev):

    -5.3690   4.3491   5.0994   5.0994   7.8442  10.2980  10.2980  10.4208
    12.5793  14.3516  15.3774  17.9167

     occupation numbers 
     1.0000   1.0000   1.0000   1.0000   0.0000   0.0000   0.0000   0.0000
     0.0000   0.0000   0.0000   0.0000

          k = 0.0000 0.2357 0.0000 (  2105 PWs)   bands (ev):

    -5.3066   4.1572   4.9960   4.9960   7.7578  10.3329  10.4751  10.4751
    12.6713  14.4208  15.5821  18.0238

     occupation numbers 
     1.0000   1.0000   1.0000   1.0000   0.0000   0.0000   0.0000   0.0000
     0.0000   0.0000   0.0000   0.0000

          k = 0.0000 0.2514 0.0000 (  2101 PWs)   bands (ev):

    -5.2400   3.9634   4.8943   4.8943   7.6720  10.2126  10.6553  10.6553
    12.8020  14.4948  15.7934  18.1374

     occupation numbers 
     1.0000   1.0000   1.0000   1.0000   0.0000   0.0000   0.0000   0.0000
     0.0000   0.0000   0.0000   0.0000

          k = 0.0000 0.2671 0.0000 (  2101 PWs)   bands (ev):

    -5.1692   3.7683   4.7945   4.7945   7.5873  10.0694  10.8383  10.8383
    12.9620  14.5735  16.0105  18.2568

     occupation numbers 
     1.0000   1.0000   1.0000   1.0000   0.0000   0.0000   0.0000   0.0000
     0.0000   0.0000   0.0000   0.0000

          k = 0.0000 0.2828 0.0000 (  2093 PWs)   bands (ev):

    -5.0943   3.5719   4.6970   4.6970   7.5043   9.9115  11.0238  11.0238
    13.1434  14.6569  16.2326  18.3817

     occupation numbers 
     1.0000   1.0000   1.0000   1.0000   0.0000   0.0000   0.0000   0.0000
     0.0000   0.0000   0.0000   0.0000

          k = 0.0000 0.2986 0.0000 (  2101 PWs)   bands (ev):

    -5.0152   3.3745   4.6019   4.6019   7.4232   9.7447  11.2114  11.2114
    13.3404  14.7451  16.4591  18.5113

     occupation numbers 
     1.0000   1.0000   1.0000   1.0000   0.0000   0.0000   0.0000   0.0000
     0.0000   0.0000   0.0000   0.0000

          k = 0.0000 0.3143 0.0000 (  2105 PWs)   bands (ev):

    -4.9320   3.1764   4.5095   4.5095   7.3444   9.5732  11.4011  11.4011
    13.5489  14.8380  16.6891  18.6447

     occupation numbers 
     1.0000   1.0000   1.0000   1.0000   0.0000   0.0000   0.0000   0.0000
     0.0000   0.0000   0.0000   0.0000

          k = 0.0000 0.3300 0.0000 (  2105 PWs)   bands (ev):

    -4.8447   2.9777   4.4199   4.4199   7.2683   9.4000  11.5925  11.5925
    13.7658  14.9357  16.9218  18.7805

     occupation numbers 
     1.0000   1.0000   1.0000   1.0000   0.0000   0.0000   0.0000   0.0000
     0.0000   0.0000   0.0000   0.0000

          k = 0.0000 0.3457 0.0000 (  2089 PWs)   bands (ev):

    -4.7533   2.7785   4.3333   4.3333   7.1951   9.2273  11.7856  11.7856
    13.9890  15.0380  17.1562  18.9172

     occupation numbers 
     1.0000   1.0000   1.0000   1.0000   0.0000   0.0000   0.0000   0.0000
     0.0000   0.0000   0.0000   0.0000

          k = 0.0000 0.3614 0.0000 (  2097 PWs)   bands (ev):

    -4.6579   2.5790   4.2497   4.2497   7.1251   9.0566  11.9801  11.9801
    14.2167  15.1451  17.3915  19.0523

     occupation numbers 
     1.0000   1.0000   1.0000   1.0000   0.0000   0.0000   0.0000   0.0000
     0.0000   0.0000   0.0000   0.0000

          k = 0.0000 0.3771 0.0000 (  2113 PWs)   bands (ev):

    -4.5585   2.3794   4.1694   4.1694   7.0584   8.8891  12.1760  12.1760
    14.4478  15.2570  17.6264  19.1826

     occupation numbers 
     1.0000   1.0000   1.0000   1.0000   0.0000   0.0000   0.0000   0.0000
     0.0000   0.0000   0.0000   0.0000

          k = 0.0000 0.3928 0.0000 (  2113 PWs)   bands (ev):

    -4.4551   2.1797   4.0924   4.0924   6.9954   8.7257  12.3732  12.3732
    14.6812  15.3735  17.8597  19.3038

     occupation numbers 
     1.0000   1.0000   1.0000   1.0000   0.0001   0.0000   0.0000   0.0000
     0.0000   0.0000   0.0000   0.0000

          k = 0.0000 0.4086 0.0000 (  2113 PWs)   bands (ev):

    -4.3478   1.9800   4.0187   4.0187   6.9362   8.5669  12.5716  12.5716
    14.9160  15.4947  18.0899  19.4101

     occupation numbers 
     1.0000   1.0000   1.0000   1.0000   0.0003   0.0000   0.0000   0.0000
     0.0000   0.0000   0.0000   0.0000

          k = 0.0000 0.4243 0.0000 (  2105 PWs)   bands (ev):

    -4.2366   1.7806   3.9485   3.9485   6.8810   8.4132  12.7712  12.7712
    15.1517  15.6206  18.3152  19.4942

     occupation numbers 
     1.0000   1.0000   1.0000   1.0000   0.0008   0.0000   0.0000   0.0000
     0.0000   0.0000   0.0000   0.0000

          k = 0.0000 0.4400 0.0000 (  2109 PWs)   bands (ev):

    -4.1215   1.5815   3.8817   3.8817   6.8299   8.2651  12.9718  12.9718
    15.3876  15.7512  18.5336  19.5479

     occupation numbers 
     1.0000   1.0000   1.0000   1.0000   0.0021   0.0000   0.0000   0.0000
     0.0000   0.0000   0.0000   0.0000

          k = 0.0000 0.4557 0.0000 (  2109 PWs)   bands (ev):

    -4.0027   1.3828   3.8186   3.8186   6.7830   8.1229  13.1734  13.1734
    15.6231  15.8865  18.7427  19.5636

     occupation numbers 
     1.0000   1.0000   1.0000   1.0000   0.0047   0.0000   0.0000   0.0000
     0.0000   0.0000   0.0000   0.0000

          k = 0.0000 0.4714 0.0000 (  2108 PWs)   bands (ev):

    -3.8800   1.1847   3.7591   3.7591   6.7405   7.9866  13.3759  13.3759
    15.8577  16.0264  18.9397  19.5363

     occupation numbers 
     1.0000   1.0000   1.0000   1.0000   0.0091   0.0000   0.0000   0.0000
     0.0000   0.0000   0.0000   0.0000

          k = 0.0000 0.4871 0.0000 (  2112 PWs)   bands (ev):

    -3.7537   0.9873   3.7032   3.7032   6.7026   7.8566  13.5794  13.5794
    16.0912  16.1710  19.1216  19.4660

     occupation numbers 
     1.0000   1.0000   1.0000   1.0000   0.0159   0.0000   0.0000   0.0000
     0.0000   0.0000   0.0000   0.0000

          k = 0.0000 0.5028 0.0000 (  2112 PWs)   bands (ev):

    -3.6237   0.7908   3.6510   3.6510   6.6693   7.7328  13.7837  13.7837
    16.3202  16.3229  19.2848  19.3572

     occupation numbers 
     1.0000   1.0000   1.0000   1.0000   0.0252   0.0000   0.0000   0.0000
     0.0000   0.0000   0.0000   0.0000

          k = 0.0000 0.5185 0.0000 (  2112 PWs)   bands (ev):

    -3.4901   0.5952   3.6026   3.6026   6.6407   7.6155  13.9888  13.9888
    16.4741  16.5526  19.2169  19.2169

     occupation numbers 
     1.0000   1.0000   1.0000   1.0000   0.0364   0.0000   0.0000   0.0000
     0.0000   0.0000   0.0000   0.0000

          k = 0.0000 0.5343 0.0000 (  2112 PWs)   bands (ev):

    -3.3529   0.4006   3.5580   3.5580   6.6171   7.5045  14.1946  14.1946
    16.6326  16.7799  19.0527  19.0527

     occupation numbers 
     1.0000   1.0000   1.0000   1.0000   0.0487   0.0000   0.0000   0.0000
     0.0000   0.0000   0.0000   0.0000

          k = 0.0000 0.5500 0.0000 (  2112 PWs)   bands (ev):

    -3.2122   0.2073   3.5171   3.5171   6.5983   7.4001  14.4009  14.4009
    16.7958  17.0044  18.8712  18.8712

     occupation numbers 
     1.0000   1.0000   1.0000   1.0000   0.0607   0.0000   0.0000   0.0000
     0.0000   0.0000   0.0000   0.0000

          k = 0.0000 0.5657 0.0000 (  2112 PWs)   bands (ev):

    -3.0682   0.0154   3.4801   3.4801   6.5847   7.3020  14.6075  14.6075
    16.9635  17.2257  18.6776  18.6776

     occupation numbers 
     1.0000   1.0000   1.0000   1.0000   0.0709   0.0000   0.0000   0.0000
     0.0000   0.0000   0.0000   0.0000

          k = 0.0000 0.5814 0.0000 (  2112 PWs)   bands (ev):

    -2.9207  -0.1750   3.4469   3.4469   6.5762   7.2105  14.8140  14.8140
    17.1358  17.4435  18.4762  18.4762

     occupation numbers 
     1.0000   1.0000   1.0000   1.0000   0.0779   0.0000   0.0000   0.0000
     0.0000   0.0000   0.0000   0.0000

          k = 0.0000 0.5971 0.0000 (  2120 PWs)   bands (ev):

    -2.7700  -0.3638   3.4175   3.4175   6.5729   7.1253  15.0200  15.0200
    17.3127  17.6573  18.2703  18.2703

     occupation numbers 
     1.0000   1.0000   1.0000   1.0000   0.0807   0.0000   0.0000   0.0000
     0.0000   0.0000   0.0000   0.0000

          k = 0.0000 0.6128 0.0000 (  2124 PWs)   bands (ev):

    -2.6160  -0.5509   3.3921   3.3921   6.5750   7.0465  15.2246  15.2246
    17.4941  17.8666  18.0629  18.0629

     occupation numbers 
     1.0000   1.0000   1.0000   1.0000   0.0789   0.0000   0.0000   0.0000
     0.0000   0.0000   0.0000   0.0000

          k = 0.0000 0.6285 0.0000 (  2120 PWs)   bands (ev):

    -2.4590  -0.7361   3.3705   3.3705   6.5825   6.9740  15.4263  15.4263
    17.6801  17.8568  17.8568  18.0709

     occupation numbers 
     1.0000   1.0000   1.0000   1.0000   0.0726   0.0001   0.0000   0.0000
     0.0000   0.0000   0.0000   0.0000

          k = 0.0000 0.6443 0.0000 (  2120 PWs)   bands (ev):

    -2.2988  -0.9193   3.3529   3.3529   6.5955   6.9078  15.6226  15.6226
    17.6557  17.6557  17.8706  18.2696

     occupation numbers 
     1.0000   1.0000   1.0000   1.0000   0.0627   0.0005   0.0000   0.0000
     0.0000   0.0000   0.0000   0.0000

          k = 0.0000 0.6600 0.0000 (  2116 PWs)   bands (ev):

    -2.1358  -1.1004   3.3392   3.3392   6.6141   6.8478  15.8085  15.8085
    17.4654  17.4654  18.0656  18.4619

     occupation numbers 
     1.0000   1.0000   1.0000   1.0000   0.0505   0.0015   0.0000   0.0000
     0.0000   0.0000   0.0000   0.0000

          k = 0.0000 0.6757 0.0000 (  2108 PWs)   bands (ev):

    -1.9698  -1.2792   3.3293   3.3293   6.6384   6.7939  15.9739  15.9739
    17.2965  17.2965  18.2651  18.6468

     occupation numbers 
     1.0000   1.0000   1.0000   1.0000   0.0375   0.0039   0.0000   0.0000
     0.0000   0.0000   0.0000   0.0000

          k = 0.0000 0.6914 0.0000 (  2100 PWs)   bands (ev):

    -1.8011  -1.4556   3.3234   3.3234   6.6685   6.7461  16.0979  16.0979
    17.1703  17.1703  18.4690  18.8234

     occupation numbers 
     1.0000   1.0000   1.0000   1.0000   0.0255   0.0084   0.0000   0.0000
     0.0000   0.0000   0.0000   0.0000

          k = 0.0000 0.7071 0.0000 (  2100 PWs)   bands (ev):

    -1.6296  -1.6296   3.3215   3.3215   6.7043   6.7043  16.1463  16.1463
    17.1210  17.1210  18.6774  18.6774

     occupation numbers 
     1.0000   1.0000   1.0000   1.0000   0.0155   0.0155   0.0000   0.0000
     0.0000   0.0000   0.0000   0.0000

          k = 0.0118 0.7071 0.0118 (  2100 PWs)   bands (ev):

    -1.6305  -1.6270   3.3034   3.3235   6.7066   6.7304  16.1199  16.1314
    17.0785  17.0895  18.7055  18.7083

     occupation numbers 
     1.0000   1.0000   1.0000   1.0000   0.0150   0.0106   0.0000   0.0000
     0.0000   0.0000   0.0000   0.0000

          k = 0.0236 0.7071 0.0236 (  2108 PWs)   bands (ev):

    -1.6333  -1.6191   3.2509   3.3294   6.7135   6.8067  16.0441  16.0876
    16.9619  17.0017  18.7863  18.7941

     occupation numbers 
     1.0000   1.0000   1.0000   1.0000   0.0136   0.0032   0.0000   0.0000
     0.0000   0.0000   0.0000   0.0000

          k = 0.0354 0.7071 0.0354 (  2112 PWs)   bands (ev):

    -1.6381  -1.6060   3.1689   3.3393   6.7249   6.9287  15.9271  16.0174
    16.7936  16.8722  18.9114  18.9202

     occupation numbers 
     1.0000   1.0000   1.0000   1.0000   0.0115   0.0003   0.0000   0.0000
     0.0000   0.0000   0.0000   0.0000

          k = 0.0471 0.7071 0.0471 (  2125 PWs)   bands (ev):

    -1.6452  -1.5877   3.0638   3.3531   6.7409   7.0900  15.7787  15.9244
    16.5937  16.7152  19.0709  19.0724

     occupation numbers 
     1.0000   1.0000   1.0000   1.0000   0.0091   0.0000   0.0000   0.0000
     0.0000   0.0000   0.0000   0.0000

          k = 0.0589 0.7071 0.0589 (  2127 PWs)   bands (ev):

    -1.6549  -1.5641   2.9423   3.3708   6.7615   7.2844  15.6078  15.8126
    16.3755  16.5409  19.2405  19.2559

     occupation numbers 
     1.0000   1.0000   1.0000   1.0000   0.0066   0.0000   0.0000   0.0000
     0.0000   0.0000   0.0000   0.0000

          k = 0.0707 0.7071 0.0707 (  2123 PWs)   bands (ev):

    -1.6678  -1.5352   2.8107   3.3924   6.7865   7.5060  15.4214  15.6857
    16.1473  16.3560  19.4177  19.4269

     occupation numbers 
     1.0000   1.0000   1.0000   1.0000   0.0044   0.0000   0.0000   0.0000
     0.0000   0.0000   0.0000   0.0000

          k = 0.0825 0.7071 0.0825 (  2111 PWs)   bands (ev):

    -1.6843  -1.5011   2.6742   3.4178   6.8160   7.7501  15.2244  15.5470
    15.9140  16.1649  19.5568  19.5998

     occupation numbers 
     1.0000   1.0000   1.0000   1.0000   0.0027   0.0000   0.0000   0.0000
     0.0000   0.0000   0.0000   0.0000

          k = 0.0943 0.7071 0.0943 (  2123 PWs)   bands (ev):

    -1.7052  -1.4618   2.5373   3.4471   6.8500   8.0127  15.0206  15.3992
    15.6788  15.9704  19.6941  19.7838

     occupation numbers 
     1.0000   1.0000   1.0000   1.0000   0.0015   0.0000   0.0000   0.0000
     0.0000   0.0000   0.0000   0.0000

          k = 0.1061 0.7071 0.1061 (  2127 PWs)   bands (ev):

    -1.7312  -1.4173   2.4037   3.4802   6.8884   8.2909  14.8127  15.2446
    15.4437  15.7745  19.8363  19.9680

     occupation numbers 
     1.0000   1.0000   1.0000   1.0000   0.0007   0.0000   0.0000   0.0000
     0.0000   0.0000   0.0000   0.0000

          k = 0.1179 0.7071 0.1179 (  2131 PWs)   bands (ev):

    -1.7630  -1.3676   2.2762   3.5169   6.9311   8.5823  14.6025  15.0852
    15.2100  15.5786  19.9813  20.1509

     occupation numbers 
     1.0000   1.0000   1.0000   1.0000   0.0003   0.0000   0.0000   0.0000
     0.0000   0.0000   0.0000   0.0000

          k = 0.1296 0.7071 0.1296 (  2135 PWs)   bands (ev):

    -1.8014  -1.3126   2.1574   3.5574   6.9782   8.8849  14.3914  14.9223
    14.9786  15.3837  20.1267  20.3319

     occupation numbers 
[...]

          k = 0.3536 0.5702 0.1369 (  2124 PWs)   bands (ev):

    -2.6322  -0.6308   2.2541   3.5908   9.3047   9.4592  12.4730  12.8620
    13.1106  17.0568  17.9086  19.0009

     occupation numbers 
     1.0000   1.0000   1.0000   1.0000   0.0000   0.0000   0.0000   0.0000
     0.0000   0.0000   0.0000   0.0000

          k = 0.3536 0.5817 0.1255 (  2124 PWs)   bands (ev):

    -2.5486  -0.6487   2.1630   3.4680   9.3592   9.5569  12.2833  12.6931
    13.4351  17.1389  17.9650  19.2360

     occupation numbers 
     1.0000   1.0000   1.0000   1.0000   0.0000   0.0000   0.0000   0.0000
     0.0000   0.0000   0.0000   0.0000

          k = 0.3536 0.5931 0.1140 (  2122 PWs)   bands (ev):

    -2.4614  -0.6765   2.0892   3.3450   9.4211   9.6568  12.0992  12.5252
    13.7620  17.2007  18.0246  19.4883

     occupation numbers 
     1.0000   1.0000   1.0000   1.0000   0.0000   0.0000   0.0000   0.0000
     0.0000   0.0000   0.0000   0.0000

          k = 0.3536 0.6045 0.1026 (  2124 PWs)   bands (ev):

    -2.3708  -0.7150   2.0335   3.2227   9.4900   9.7590  11.9209  12.3588
    14.0897  17.2435  18.0879  19.7506

     occupation numbers 
     1.0000   1.0000   1.0000   1.0000   0.0000   0.0000   0.0000   0.0000
     0.0000   0.0000   0.0000   0.0000

          k = 0.3536 0.6159 0.0912 (  2126 PWs)   bands (ev):

    -2.2772  -0.7644   1.9962   3.1016   9.5657   9.8631  11.7491  12.1948
    14.4167  17.2679  18.1558  20.0109

     occupation numbers 
     1.0000   1.0000   1.0000   1.0000   0.0000   0.0000   0.0000   0.0000
     0.0000   0.0000   0.0000   0.0000

          k = 0.3536 0.6273 0.0798 (  2134 PWs)   bands (ev):

    -2.1807  -0.8244   1.9771   2.9826   9.6477   9.9686  11.5845  12.0337
    14.7412  17.2741  18.2292  20.2426

     occupation numbers 
     1.0000   1.0000   1.0000   1.0000   0.0000   0.0000   0.0000   0.0000
     0.0000   0.0000   0.0000   0.0000

          k = 0.3536 0.6387 0.0684 (  2138 PWs)   bands (ev):

    -2.0816  -0.8944   1.9756   2.8661   9.7356  10.0742  11.4285  11.8759
    15.0607  17.2615  18.3096  20.3696

     occupation numbers 
     1.0000   1.0000   1.0000   1.0000   0.0000   0.0000   0.0000   0.0000
     0.0000   0.0000   0.0000   0.0000

          k = 0.3536 0.6501 0.0570 (  2140 PWs)   bands (ev):

    -1.9802  -0.9734   1.9905   2.7530   9.8289  10.1777  11.2836  11.7222
    15.3724  17.2287  18.3991  20.2866

     occupation numbers 
     1.0000   1.0000   1.0000   1.0000   0.0000   0.0000   0.0000   0.0000
     0.0000   0.0000   0.0000   0.0000

          k = 0.3536 0.6615 0.0456 (  2142 PWs)   bands (ev):

    -1.8769  -1.0600   2.0205   2.6439   9.9267  10.2741  11.1546  11.5733
    15.6727  17.1734  18.5004  20.0634

     occupation numbers 
     1.0000   1.0000   1.0000   1.0000   0.0000   0.0000   0.0000   0.0000
     0.0000   0.0000   0.0000   0.0000

          k = 0.3536 0.6729 0.0342 (  2144 PWs)   bands (ev):

    -1.7722  -1.1528   2.0642   2.5396  10.0279  10.3532  11.0520  11.4305
    15.9572  17.0926  18.6171  19.8042

     occupation numbers 
     1.0000   1.0000   1.0000   1.0000   0.0000   0.0000   0.0000   0.0000
     0.0000   0.0000   0.0000   0.0000

          k = 0.3536 0.6843 0.0228 (  2142 PWs)   bands (ev):

    -1.6667  -1.2506   2.1202   2.4408  10.1305  10.3958  10.9951  11.2957
    16.2210  16.9829  18.7530  19.5483

     occupation numbers 
     1.0000   1.0000   1.0000   1.0000   0.0000   0.0000   0.0000   0.0000
     0.0000   0.0000   0.0000   0.0000

          k = 0.3536 0.6957 0.0114 (  2148 PWs)   bands (ev):

    -1.5609  -1.3519   2.1871   2.3485  10.2305  10.3827  11.0031  11.1729
    16.4590  16.8415  18.9122  19.3105

     occupation numbers 
     1.0000   1.0000   1.0000   1.0000   0.0000   0.0000   0.0000   0.0000
     0.0000   0.0000   0.0000   0.0000

          k = 0.3536 0.7071 0.0000 (  2148 PWs)   bands (ev):

    -1.4557  -1.4557   2.2636   2.2636  10.3200  10.3200  11.0700  11.0700
    16.6667  16.6667  19.0977  19.0977

     occupation numbers 
     1.0000   1.0000   1.0000   1.0000   0.0000   0.0000   0.0000   0.0000
     0.0000   0.0000   0.0000   0.0000

          k = 0.3375 0.7071 0.0000 (  2148 PWs)   bands (ev):

    -1.4567  -1.4567   2.2678   2.2678  10.2329  10.2329  11.1613  11.1613
    16.6666  16.6666  19.0959  19.0959

     occupation numbers 
     1.0000   1.0000   1.0000   1.0000   0.0000   0.0000   0.0000   0.0000
     0.0000   0.0000   0.0000   0.0000

          k = 0.3214 0.7071 0.0000 (  2146 PWs)   bands (ev):

    -1.4596  -1.4596   2.2806   2.2806  10.0405  10.0405  11.3668  11.3668
    16.6662  16.6662  19.0907  19.0907

     occupation numbers 
     1.0000   1.0000   1.0000   1.0000   0.0000   0.0000   0.0000   0.0000
     0.0000   0.0000   0.0000   0.0000

          k = 0.3053 0.7071-0.0000 (  2150 PWs)   bands (ev):

    -1.4644  -1.4644   2.3016   2.3016   9.8131   9.8131  11.6158  11.6158
    16.6655  16.6655  19.0823  19.0823

     occupation numbers 
     1.0000   1.0000   1.0000   1.0000   0.0000   0.0000   0.0000   0.0000
     0.0000   0.0000   0.0000   0.0000

          k = 0.2893 0.7071 0.0000 (  2154 PWs)   bands (ev):

    -1.4709  -1.4709   2.3307   2.3307   9.5756   9.5756  11.8837  11.8837
    16.6647  16.6647  19.0708  19.0708

     occupation numbers 
     1.0000   1.0000   1.0000   1.0000   0.0000   0.0000   0.0000   0.0000
     0.0000   0.0000   0.0000   0.0000

          k = 0.2732 0.7071-0.0000 (  2152 PWs)   bands (ev):

    -1.4790  -1.4790   2.3675   2.3675   9.3365   9.3365  12.1619  12.1619
    16.6638  16.6638  19.0568  19.0568

     occupation numbers 
     1.0000   1.0000   1.0000   1.0000   0.0000   0.0000   0.0000   0.0000
     0.0000   0.0000   0.0000   0.0000

          k = 0.2571 0.7071 0.0000 (  2146 PWs)   bands (ev):

    -1.4884  -1.4884   2.4116   2.4116   9.0996   9.0996  12.4466  12.4466
    16.6629  16.6629  19.0405  19.0405

     occupation numbers 
     1.0000   1.0000   1.0000   1.0000   0.0000   0.0000   0.0000   0.0000
     0.0000   0.0000   0.0000   0.0000

          k = 0.2411 0.7071-0.0000 (  2146 PWs)   bands (ev):

    -1.4990  -1.4990   2.4625   2.4625   8.8670   8.8670  12.7359  12.7359
    16.6622  16.6622  19.0225  19.0225

     occupation numbers 
     1.0000   1.0000   1.0000   1.0000   0.0000   0.0000   0.0000   0.0000
     0.0000   0.0000   0.0000   0.0000

          k = 0.2250 0.7071-0.0000 (  2146 PWs)   bands (ev):

    -1.5104  -1.5104   2.5195   2.5195   8.6398   8.6398  13.0286  13.0286
    16.6617  16.6617  19.0031  19.0031

     occupation numbers 
     1.0000   1.0000   1.0000   1.0000   0.0000   0.0000   0.0000   0.0000
     0.0000   0.0000   0.0000   0.0000

          k = 0.2089 0.7071 0.0000 (  2142 PWs)   bands (ev):

    -1.5224  -1.5224   2.5821   2.5821   8.4191   8.4191  13.3236  13.3236
    16.6618  16.6618  18.9830  18.9830

     occupation numbers 
     1.0000   1.0000   1.0000   1.0000   0.0000   0.0000   0.0000   0.0000
     0.0000   0.0000   0.0000   0.0000

          k = 0.1928 0.7071 0.0000 (  2140 PWs)   bands (ev):

    -1.5348  -1.5348   2.6492   2.6492   8.2059   8.2059  13.6199  13.6199
    16.6628  16.6628  18.9624  18.9624

     occupation numbers 
     1.0000   1.0000   1.0000   1.0000   0.0000   0.0000   0.0000   0.0000
     0.0000   0.0000   0.0000   0.0000

          k = 0.1768 0.7071 0.0000 (  2128 PWs)   bands (ev):

    -1.5472  -1.5472   2.7201   2.7201   8.0011   8.0011  13.9165  13.9165
    16.6650  16.6650  18.9419  18.9419

     occupation numbers 
     1.0000   1.0000   1.0000   1.0000   0.0000   0.0000   0.0000   0.0000
     0.0000   0.0000   0.0000   0.0000

          k = 0.1607 0.7071 0.0000 (  2130 PWs)   bands (ev):

    -1.5594  -1.5594   2.7936   2.7936   7.8057   7.8057  14.2121  14.2121
    16.6690  16.6690  18.9217  18.9217

     occupation numbers 
     1.0000   1.0000   1.0000   1.0000   0.0000   0.0000   0.0000   0.0000
     0.0000   0.0000   0.0000   0.0000

          k = 0.1446 0.7071 0.0000 (  2130 PWs)   bands (ev):

    -1.5712  -1.5712   2.8685   2.8685   7.6209   7.6209  14.5050  14.5050
    16.6758  16.6758  18.9020  18.9020

     occupation numbers 
     1.0000   1.0000   1.0000   1.0000   0.0000   0.0000   0.0000   0.0000
     0.0000   0.0000   0.0000   0.0000

          k = 0.1286 0.7071 0.0000 (  2126 PWs)   bands (ev):

    -1.5824  -1.5824   2.9435   2.9435   7.4480   7.4480  14.7927  14.7927
    16.6865  16.6865  18.8832  18.8832

     occupation numbers 
     1.0000   1.0000   1.0000   1.0000   0.0000   0.0000   0.0000   0.0000
     0.0000   0.0000   0.0000   0.0000

          k = 0.1125 0.7071 0.0000 (  2126 PWs)   bands (ev):

    -1.5927  -1.5927   3.0169   3.0169   7.2884   7.2884  15.0717  15.0717
    16.7032  16.7032  18.8652  18.8652

     occupation numbers 
     1.0000   1.0000   1.0000   1.0000   0.0000   0.0000   0.0000   0.0000
     0.0000   0.0000   0.0000   0.0000

          k = 0.0964 0.7071-0.0000 (  2126 PWs)   bands (ev):

    -1.6021  -1.6021   3.0869   3.0869   7.1440   7.1440  15.3366  15.3366
    16.7290  16.7290  18.8478  18.8478

     occupation numbers 
     1.0000   1.0000   1.0000   1.0000   0.0000   0.0000   0.0000   0.0000
     0.0000   0.0000   0.0000   0.0000

          k = 0.0804 0.7071 0.0000 (  2122 PWs)   bands (ev):

    -1.6102  -1.6102   3.1515   3.1515   7.0165   7.0165  15.5794  15.5794
    16.7687  16.7687  18.8304  18.8304

     occupation numbers 
     1.0000   1.0000   1.0000   1.0000   0.0001   0.0001   0.0000   0.0000
     0.0000   0.0000   0.0000   0.0000

          k = 0.0643 0.7071 0.0000 (  2124 PWs)   bands (ev):

    -1.6171  -1.6171   3.2087   3.2087   6.9081   6.9081  15.7887  15.7887
    16.8279  16.8279  18.8113  18.8113

     occupation numbers 
     1.0000   1.0000   1.0000   1.0000   0.0005   0.0005   0.0000   0.0000
     0.0000   0.0000   0.0000   0.0000

          k = 0.0482 0.7071 0.0000 (  2112 PWs)   bands (ev):

    -1.6225  -1.6225   3.2561   3.2561   6.8208   6.8208  15.9526  15.9526
    16.9097  16.9097  18.7868  18.7868

     occupation numbers 
     1.0000   1.0000   1.0000   1.0000   0.0025   0.0025   0.0000   0.0000
     0.0000   0.0000   0.0000   0.0000

          k = 0.0321 0.7071 0.0000 (  2104 PWs)   bands (ev):

    -1.6264  -1.6264   3.2918   3.2918   6.7567   6.7567  16.0643  16.0643
    17.0052  17.0052  18.7500  18.7500

     occupation numbers 
     1.0000   1.0000   1.0000   1.0000   0.0071   0.0071   0.0000   0.0000
     0.0000   0.0000   0.0000   0.0000

          k = 0.0161 0.7071-0.0000 (  2100 PWs)   bands (ev):

    -1.6288  -1.6288   3.3139   3.3139   6.7175   6.7175  16.1267  16.1267
    17.0876  17.0876  18.7023  18.7023

     occupation numbers 
     1.0000   1.0000   1.0000   1.0000   0.0129   0.0129   0.0000   0.0000
     0.0000   0.0000   0.0000   0.0000

          k = 0.0000 0.7071 0.0000 (  2100 PWs)   bands (ev):

    -1.6296  -1.6296   3.3215   3.3215   6.7043   6.7043  16.1463  16.1463
    17.1210  17.1210  18.6774  18.6774

     occupation numbers 
     1.0000   1.0000   1.0000   1.0000   0.0155   0.0155   0.0000   0.0000
     0.0000   0.0000   0.0000   0.0000

     the Fermi energy is     6.3851 ev

!    total energy              =     -16.82568815 Ry
     estimated scf accuracy    <          1.7E-10 Ry
     smearing contrib. (-TS)   =       0.00109551 Ry
     internal energy E=F+TS    =     -16.82678366 Ry

     The total energy is F=E-TS. E is the sum of the following terms:
     one-electron contribution =       5.01600072 Ry
     hartree contribution      =       1.19301277 Ry
     xc contribution           =      -6.23846929 Ry
     ewald contribution        =     -16.79732785 Ry

     convergence has been achieved in   6 iterations

     Forces acting on atoms (cartesian axes, Ry/au):

     atom    1 type  1   force =     0.00000000    0.00000000    0.00000000
     atom    2 type  1   force =     0.00000000    0.00000000    0.00000000
     The non-local contrib.  to forces
     atom    1 type  1   force =     0.00000000    0.00000000    0.00000000
     atom    2 type  1   force =    -0.00000000    0.00000000    0.00000000
     The ionic contribution  to forces
     atom    1 type  1   force =     0.00000000    0.00000000    0.00000000
     atom    2 type  1   force =    -0.00000000   -0.00000000   -0.00000000
     The local contribution  to forces
     atom    1 type  1   force =     0.00000000    0.00000000    0.00000000
     atom    2 type  1   force =    -0.00000000   -0.00000000   -0.00000000
     The core correction contribution to forces
     atom    1 type  1   force =    -0.00000000   -0.00000000   -0.00000000
     atom    2 type  1   force =     0.00000000    0.00000000    0.00000000
     The Hubbard contrib.    to forces
     atom    1 type  1   force =     0.00000000    0.00000000    0.00000000
     atom    2 type  1   force =     0.00000000    0.00000000    0.00000000
     The SCF correction term to forces
     atom    1 type  1   force =    -0.00000000   -0.00000000   -0.00000000
     atom    2 type  1   force =     0.00000000    0.00000000    0.00000000

     Total force =     0.000000     Total SCF correction =     0.000000


     Computing stress (Cartesian axis) and pressure

          total   stress  (Ry/bohr**3)                   (kbar)     P=       60.03
   0.00040806   0.00000000   0.00000000           60.03        0.00        0.00
   0.00000000   0.00040806   0.00000000            0.00       60.03        0.00
   0.00000000   0.00000000   0.00040806            0.00        0.00       60.03

     kinetic stress (kbar)   2371.42     -0.00      0.00
                               -0.00   2371.42      0.00
                                0.00      0.00   2371.42

     local   stress (kbar)   -447.43     -0.00     -0.00
                               -0.00   -447.43     -0.00
                               -0.00     -0.00   -447.43

     nonloc. stress (kbar)   1932.36     -0.00      0.00
                               -0.00   1932.36     -0.00
                                0.00      0.00   1932.36

     hartree stress (kbar)    216.52      0.00     -0.00
                                0.00    216.52     -0.00
                               -0.00     -0.00    216.52

     exc-cor stress (kbar)   -156.28      0.00      0.00
                                0.00   -156.28      0.00
                                0.00      0.00   -156.28

     corecor stress (kbar)   -808.07     -0.00     -0.00
                               -0.00   -808.07     -0.00
                               -0.00     -0.00   -808.07

     ewald   stress (kbar)  -3048.49      0.00      0.00
                                0.00  -3048.49      0.00
                                0.00      0.00  -3048.49

     hubbard stress (kbar)      0.00      0.00      0.00
                                0.00      0.00      0.00
                                0.00      0.00      0.00

     DFT-D   stress (kbar)      0.00      0.00      0.00
                                0.00      0.00      0.00
                                0.00      0.00      0.00

     XDM     stress (kbar)      0.00      0.00      0.00
                                0.00      0.00      0.00
                                0.00      0.00      0.00

     dft-nl  stress (kbar)      0.00      0.00      0.00
                                0.00      0.00      0.00
                                0.00      0.00      0.00

     TS-vdW  stress (kbar)      0.00      0.00      0.00
                                0.00      0.00      0.00
                                0.00      0.00      0.00

     MDB     stress (kbar)      0.00      0.00      0.00
                                0.00      0.00      0.00
                                0.00      0.00      0.00

     3D-RISM stress (kbar)      0.00      0.00      0.00
                                0.00      0.00      0.00
                                0.00      0.00      0.00


     Writing all to output data dir ./out/aiida.save/ :
     XML data file, charge density, pseudopotentials, collected wavefunctions
 
     init_run     :      0.97s CPU      1.05s WALL (       1 calls)
     electrons    :     37.94s CPU     38.38s WALL (       1 calls)
     forces       :      0.31s CPU      0.32s WALL (       1 calls)
     stress       :      1.77s CPU      1.78s WALL (       1 calls)

     Called by init_run:
     wfcinit      :      0.85s CPU      0.93s WALL (       1 calls)
     wfcinit:atom :      0.03s CPU      0.03s WALL (     202 calls)
     wfcinit:wfcr :      0.69s CPU      0.74s WALL (     202 calls)
     potinit      :      0.00s CPU      0.00s WALL (       1 calls)
     hinit0       :      0.06s CPU      0.06s WALL (       1 calls)

     Called by electrons:
     c_bands      :     35.52s CPU     35.95s WALL (       6 calls)
     sum_band     :      2.40s CPU      2.42s WALL (       6 calls)
     v_of_rho     :      0.01s CPU      0.01s WALL (       7 calls)
     v_h          :      0.00s CPU      0.00s WALL (       7 calls)
     v_xc         :      0.01s CPU      0.01s WALL (       9 calls)
     mix_rho      :      0.00s CPU      0.00s WALL (       6 calls)

     Called by c_bands:
     init_us_2    :      1.30s CPU      1.34s WALL (    3030 calls)
     paro_k       :     33.01s CPU     33.41s WALL (    1212 calls)

     Called by sum_band:
     sum_band:wei :      0.02s CPU      0.02s WALL (       6 calls)
     sum_band:loo :      2.37s CPU      2.39s WALL (       6 calls)
     sum_band:buf :      0.06s CPU      0.06s WALL (    1212 calls)
     sum_band:ini :      0.51s CPU      0.51s WALL (    1212 calls)

     Called by paro_*:
     paro:init    :      3.84s CPU      3.86s WALL (    1212 calls)
     paro:pack    :      0.37s CPU      0.37s WALL (    4862 calls)
     paro:mp_bar  :      0.01s CPU      0.01s WALL (    4862 calls)
     paro:mp_sum  :      0.23s CPU      0.24s WALL (    4862 calls)
     pcg          :     24.84s CPU     25.14s WALL (    4862 calls)
     pcg:hs_1psi  :     20.11s CPU     20.34s WALL (   18508 calls)
     pcg:ortho    :      1.50s CPU      1.53s WALL (   23370 calls)
     pcg:move1    :      0.52s CPU      0.53s WALL (   18508 calls)
     pcg:move2    :      0.20s CPU      0.21s WALL (   12432 calls)
     rotHSw       :      3.64s CPU      3.70s WALL (    6074 calls)
     rotHSw:hc    :      1.53s CPU      1.56s WALL (    6074 calls)
     rotHSw:diag  :      0.50s CPU      0.51s WALL (    6074 calls)
     rotHSw:evc   :      1.58s CPU      1.61s WALL (    6074 calls)
     rotHSw:hc:s1 :      0.01s CPU      0.01s WALL (    6074 calls)
     rotHSw:hc:s2 :      0.01s CPU      0.01s WALL (    6074 calls)
     rotHSw:hc:s3 :      0.01s CPU      0.01s WALL (    6074 calls)
     rotHSw:hc:s4 :      0.01s CPU      0.01s WALL (    6074 calls)
     rotHSw:ev:s5 :      0.01s CPU      0.01s WALL (    6074 calls)
     rotHSw:ev:s6 :      0.01s CPU      0.01s WALL (    6074 calls)
     h_psi        :     24.26s CPU     24.55s WALL (   19922 calls)
     g_psi        :      0.48s CPU      0.49s WALL (   23370 calls)

     Called by h_psi:
     h_psi:calbec :      1.89s CPU      1.91s WALL (   19922 calls)
     vloc_psi     :     20.29s CPU     20.53s WALL (   19922 calls)
                                        0.00s GPU  (   19922 calls)
     add_vuspsi   :      1.83s CPU      1.85s WALL (   19922 calls)

     General routines
     calbec       :      2.43s CPU      2.45s WALL (   23356 calls)
     fft          :      0.00s CPU      0.00s WALL (      28 calls)
     ffts         :      0.00s CPU      0.00s WALL (       6 calls)
     fftw         :     17.53s CPU     17.74s WALL (  187964 calls)
 
     Parallel routines
 
     PWSCF        :     41.07s CPU     41.65s WALL

 
   This run was terminated on:  14:19:42   4Feb2026            

=------------------------------------------------------------------------------=
   JOB DONE.
=------------------------------------------------------------------------------=
